# vtk DataFile Version 2.0
Mesh data
ASCII
DATASET UNSTRUCTURED_GRID
POINTS 0 double 
CELLS 0 0
CELL_TYPES 0
CELL_DATA 0
SCALARS Boundaries int 1
LOOKUP_TABLE default
