# vtk DataFile Version 2.0
Mesh data
ASCII
DATASET UNSTRUCTURED_GRID
POINTS 36 double 
-0.00033248 -0.001 0.0006
3.29475283035121e-20 -0.000238906290994587 0.0006
-0.001 -0.00033248 0.0006
-0.0003 -0.0006 0.0003
0.001 0.00033248 0
0.001 -0.00033248 0
0.000346860148938272 5.87917270422622e-20 0
0.0006 -0.00015 0.0003
-0.001 0.00033248 0.0006
3.14386738864414e-20 0.000452848159300412 0.0006
-0.00033248 0.001 0.0006
-0.000524527789288372 0.000249634344381576 0.000292307692307692
8.32667268468867e-20 -0.001 0
-0.000188135017841427 3.16404680233973e-20 0
0.00033248 -0.001 0.0006
0.001 -0.00033248 0.0006
-1.71075036562414e-05 4.40710856151585e-05 0.0003
0.001 0.00033248 0.0006
8.32667268468867e-20 0.001 0
0 0.0006 0.0003
0.00033248 0.001 0.0006
-0.001 -0.001 0
0.001 0 0.0003
0.001 -0.00066624 0.0003
0.001 -0.001 0
0.001 -0.001 0.0006
0.001 0.00066624 0.0003
0.001 0.001 0
0.001 0.001 0.0006
-0.001 0.0005 0
-0.001 8.32667268468867e-20 0
-0.001 -0.0005 0
-0.001 2.77555756156289e-20 0.0004
-0.001 -0.001 0.0006
-0.001 0.001 0
-0.001 0.001 0.0006
CELLS 58 232
3 0 1 2
3 4 5 6
3 8 9 10
3 6 12 13
3 1 14 15
3 1 9 17
3 6 13 18
3 1 8 9
3 9 10 20
3 10 18 20
3 5 6 12
3 0 12 14
3 0 1 14
3 1 15 17
3 0 12 21
3 4 6 18
3 9 17 20
3 15 17 22
3 4 17 22
3 5 15 22
3 4 5 22
3 23 24 25
3 14 24 25
3 15 23 25
3 14 15 25
3 26 27 28
3 20 27 28
3 17 26 28
3 17 20 28
3 13 29 30
3 13 30 31
3 30 31 32
3 12 21 31
3 12 13 31
3 0 21 33
3 0 2 33
3 21 31 33
3 2 31 33
3 1 2 8
3 2 8 32
3 2 31 32
3 29 30 32
3 8 29 32
3 4 17 26
3 18 20 27
3 4 18 27
3 4 26 27
3 5 15 23
3 12 14 24
3 5 12 24
3 5 23 24
3 10 18 34
3 18 29 34
3 13 18 29
3 8 10 35
3 8 29 35
3 10 34 35
3 29 34 35
CELL_TYPES 58
5
5
5
5
5
5
5
5
5
5
5
5
5
5
5
5
5
5
5
5
5
5
5
5
5
5
5
5
5
5
5
5
5
5
5
5
5
5
5
5
5
5
5
5
5
5
5
5
5
5
5
5
5
5
5
5
5
5
CELL_DATA 58
SCALARS Boundaries int 1
LOOKUP_TABLE default
0
0
0
0
0
0
0
0
0
0
0
0
0
0
0
0
0
1
1
1
1
1
0
1
0
1
0
1
0
0
0
2
0
0
0
0
2
2
0
2
2
2
2
1
0
0
1
1
0
0
1
0
0
0
0
2
0
2
