# vtk DataFile Version 2.0
Mesh data
ASCII
DATASET UNSTRUCTURED_GRID
POINTS 36 double 
-0.00033248 -0.001 0.0006
3.29475283035121e-20 -0.000238906290994587 0.0006
-0.001 -0.00033248 0.0006
-0.0003 -0.0006 0.0003
0.001 0.00033248 0
0.001 -0.00033248 0
0.000346860148938272 5.87917270422622e-20 0
0.0006 -0.00015 0.0003
-0.001 0.00033248 0.0006
3.14386738864414e-20 0.000452848159300412 0.0006
-0.00033248 0.001 0.0006
-0.000524527789288372 0.000249634344381576 0.000292307692307692
8.32667268468867e-20 -0.001 0
-0.000188135017841427 3.16404680233973e-20 0
0.00033248 -0.001 0.0006
0.001 -0.00033248 0.0006
-1.71075036562414e-05 4.40710856151585e-05 0.0003
0.001 0.00033248 0.0006
8.32667268468867e-20 0.001 0
0 0.0006 0.0003
0.00033248 0.001 0.0006
-0.001 -0.001 0
0.001 0 0.0003
0.001 -0.00066624 0.0003
0.001 -0.001 0
0.001 -0.001 0.0006
0.001 0.00066624 0.0003
0.001 0.001 0
0.001 0.001 0.0006
-0.001 0.0005 0
-0.001 8.32667268468867e-20 0
-0.001 -0.0005 0
-0.001 2.77555756156289e-20 0.0004
-0.001 -0.001 0.0006
-0.001 0.001 0
-0.001 0.001 0.0006
CELLS 83 415
4 0 1 2 3
4 4 5 6 7
4 8 9 10 11
4 3 6 12 13
4 1 7 14 15
4 6 7 9 16
4 3 6 7 12
4 1 7 9 17
4 1 7 9 16
4 6 13 18 19
4 1 8 9 11
4 9 10 19 20
4 9 10 11 19
4 1 3 7 14
4 10 18 19 20
4 1 9 11 16
4 5 6 7 12
4 0 3 12 14
4 0 1 3 14
4 3 7 12 14
4 3 6 13 16
4 1 7 15 17
4 1 3 11 16
4 3 11 13 16
4 1 3 7 16
4 3 6 7 16
4 0 3 12 21
4 4 6 18 19
4 9 17 19 20
4 4 6 17 19
4 4 6 7 17
4 6 9 17 19
4 6 7 9 17
4 9 11 16 19
4 11 13 16 19
4 6 9 16 19
4 6 13 16 19
4 7 15 17 22
4 4 7 17 22
4 5 7 15 22
4 4 5 7 22
4 14 23 24 25
4 14 15 23 25
4 20 26 27 28
4 17 20 26 28
4 11 13 29 30
4 11 13 30 31
4 11 30 31 32
4 3 12 21 31
4 3 12 13 31
4 0 3 21 33
4 0 2 3 33
4 3 21 31 33
4 2 3 31 33
4 3 11 13 31
4 1 2 3 32
4 1 3 11 32
4 1 2 8 32
4 1 8 11 32
4 2 3 31 32
4 3 11 31 32
4 11 29 30 32
4 8 11 29 32
4 17 19 20 26
4 4 17 19 26
4 18 19 20 26
4 4 18 19 26
4 18 20 26 27
4 4 18 26 27
4 7 14 15 23
4 5 7 15 23
4 7 12 14 23
4 5 7 12 23
4 12 14 23 24
4 5 12 23 24
4 8 10 11 29
4 10 18 29 34
4 11 13 18 29
4 11 13 18 19
4 10 11 18 29
4 10 11 18 19
4 8 10 29 35
4 10 29 34 35
CELL_TYPES 83
10
10
10
10
10
10
10
10
10
10
10
10
10
10
10
10
10
10
10
10
10
10
10
10
10
10
10
10
10
10
10
10
10
10
10
10
10
10
10
10
10
10
10
10
10
10
10
10
10
10
10
10
10
10
10
10
10
10
10
10
10
10
10
10
10
10
10
10
10
10
10
10
10
10
10
10
10
10
10
10
10
10
10
CELL_DATA 83
SCALARS Materials int 1
LOOKUP_TABLE default
0
0
0
0
0
0
0
0
0
0
0
0
0
0
0
0
0
0
0
0
0
0
0
0
0
0
0
0
0
0
0
0
0
0
0
0
0
0
0
0
0
0
0
0
0
0
0
0
0
0
0
0
0
0
0
0
0
0
0
0
0
0
0
0
0
0
0
0
0
0
0
0
0
0
0
0
0
0
0
0
0
0
0
