# vtk DataFile Version 2.0
Solution data
ASCII
DATASET UNSTRUCTURED_GRID
POINTS 301 float 
-0.000611422 0.000635 -0.00118561
-0.00065011 0.000227844 -0.00105485
-3.50918e-06 0.000635 -0.000650796
0.000100974 0.000635 -0.00143547
-0.000695798 -0.000118122 0.000355892
-0.000642766 2.5254e-05 0.00104394
-0.000582192 0.000248008 0.000408113
3.1431e-05 5.93208e-06 0.000648048
0.000630237 -0.000635 -0.000314534
0.000502302 -0.000635 0.000515794
0.000612815 3.11036e-05 1.21554e-05
0.00127 -0.000635 7.89525e-05
-0.000530634 -0.000635 0.00046866
-0.000627273 -0.000635 -0.00116971
8.21896e-06 -0.000635 -0.00074444
-0.000167186 -3.59938e-05 -0.00118212
1.14088e-05 -0.000635 -0.00149239
0.000455156 4.21862e-05 -0.000832756
-0.000609408 -0.000635 -0.00037412
-0.000713166 -0.00019508 -0.000599353
-0.00127 -0.000635 -0.000834225
-0.000630332 -0.000635 0.00120757
-0.000946805 -0.000193316 0.00145282
-0.000553413 -0.000635 0.00198553
-0.00127 -0.000635 0.0016663
0.000680811 0.000635 -0.000906468
0.00127 0 -0.000368336
0.00127 -0.000635 -0.000755304
0.00127 0 0.000423542
0.00127 0.000635 -5.88352e-05
-0.000908132 0.000256472 0.00168546
-0.00127 0 0.00168675
-0.000717254 -1.22866e-05 0.00179023
-0.000637381 0.000635 0.00129888
-0.00127 0.000635 0.00168942
-0.000633903 0.000635 0.00199501
0.000715993 -0.000170175 -0.00150472
6.05947e-05 2.75108e-05 -0.00174125
0.000625835 -0.00022303 -0.00208252
0.000551001 0.000192766 -0.00211964
-0.000792255 -0.000108713 -0.00161108
0.000823981 -8.76488e-05 0.000803297
0.000602022 -0.000635 0.00124442
0.00127 -0.000635 0.000894476
0.000871939 -0.000247509 0.00149052
0.00127 -0.000635 0.00170111
0.000642442 -0.000635 0.00191557
-0.000663829 0.000635 0.000579273
-2.09563e-06 0.000635 0.000515939
-0.00058087 0.000635 -0.000164566
-0.00127 0.000635 0.000876353
-0.00127 0.000635 5.20454e-05
0.000374371 -1.91855e-05 0.00125903
0.000649848 0.000635 0.000886959
0.000571343 0.000186923 -0.00138556
0.000945372 0.000174689 -0.00162546
0.00127 0 -0.00105803
0.00127 0 0.00111469
0.00127 0 0.0018165
-9.9723e-05 -0.000191161 0.000149919
0.00127 0.000635 0.000584047
0.00127 0.000635 0.00122335
-0.00127 -9.8787e-07 0.000862364
0.000265482 -0.000135598 -0.00127044
0.000639984 -0.000635 -0.00112713
0.00127 0.000635 -0.000703966
0.00127 0.000635 -0.00133913
0.000645053 0.000635 0.00144364
0.00063825 0.000635 0.00195539
8.47695e-05 1.19818e-05 0.0019267
6.65702e-06 0.000635 0.0016583
0.000660092 -9.67737e-06 0.00176506
-9.78561e-05 0.00030236 6.43061e-05
3.69845e-07 0.000635 0.00106267
0.000928454 0.0002991 0.00151256
0.00127 0.000635 0.00186126
-0.000106271 -0.000635 0.000934045
9.69166e-06 -0.000635 0.00147881
0.000896664 -0.000277757 -0.000843967
0.00127 -0.000635 -0.00162207
-7.93299e-06 0.000327175 0.00218004
0.000672326 0.000635 -0.000339286
0.000664104 0.000635 0.000256736
-5.44723e-05 -0.000303963 -0.00209421
-0.000334864 -0.000241177 -0.00167313
-0.00063033 -0.000635 -0.00189791
-0.000476393 -7.78516e-05 -0.00220411
-0.000299108 0.000335761 0.00081682
-0.000886496 0.000181815 -0.000504759
-0.00127 -1.49815e-05 -0.000790245
0.00069253 0.000460125 -0.00145189
0.000665774 0.000635 -0.00196109
-0.000469967 0.00024725 -0.000480562
-0.000710037 0.000105092 -7.82635e-05
-0.000180229 -2.06522e-05 -0.000349907
0.000618475 0.000343193 0.000484287
-0.00036472 -0.000231783 0.00164389
0.000380032 3.58785e-05 0.0022188
0 0 0.0025
0.000711591 0.000635 -0.00145187
0.000214821 -0.00027665 -0.000229425
4.64507e-06 -0.000635 -9.05641e-06
5.78438e-05 -0.000635 0.00200433
2.54119e-05 0.000635 -0.00199456
0 0 -0.0025
-0.000357852 0.000277775 -0.00217316
-1.55329e-05 -0.000635 0.000494596
-0.00127 0.000217826 -0.00207536
-0.00127 0.000635 -0.00163975
-0.000882401 0.000228713 -0.00214245
-0.00127 0 -0.00165582
-0.00127 -0.000635 -0.00166728
-0.000953995 -0.000258983 -0.00221433
-0.000429067 0.000241445 -0.00168789
-0.000625708 0.000635 -0.00197097
8.54406e-06 -0.000635 -0.00200511
0.000639319 -0.000635 -0.00187426
0.0008845 0.000217412 0.00219547
-0.00127 -0.000213826 -0.00123336
-0.00127 -0.000214117 -0.00208006
-0.00127 0 -0.0025
-0.00127 0.000212005 -0.00121953
-0.000117003 1.23774e-05 0.00124133
0.00014581 0.000635 -6.28763e-05
-0.00127 -0.0003175 0.0020905
0.000544213 -0.000219953 0.00219154
-0.000661708 -0.000120279 0.00227805
-0.00127 0.000635 -0.000779709
0.00127 0.000635 -0.00193096
0.000916281 -0.000292303 0.00220307
-0.00127 0.000242116 -0.000367736
-0.000866766 0.0003007 -0.0015742
-0.000916236 7.0018e-05 0.00224156
-0.00127 -0.000236283 -0.00038939
-0.00127 -0.000635 -9.63562e-07
-0.00127 0.0003175 0.00209821
-0.00127 0 0.0025
-0.00127 -0.000225016 0.00126601
0.000411937 -0.000305856 0.0017069
-0.00127 0.000228201 0.00128041
-0.00127 -0.000231951 0.000437597
-0.00127 -0.000635 0.000832642
-0.00061359 0.000635 -0.000688578
-0.00127 0.000220804 0.000460316
-0.00127 -1.68789e-05 3.65592e-05
0.00127 0 -0.00152747
0.00127 0 -0.00197145
-0.000263854 -3.38532e-05 -0.000778845
-0.000351109 0.000266433 0.00156102
-0.000405837 4.53041e-05 0.00209142
-0.000635 0.000217861 0.0025
0.000901753 0.000212756 -0.000573015
-0.000381311 -0.000319215 -0.000137024
0.000191068 0.000199132 -0.00024874
0.000619849 -0.000244544 -0.000565083
-0.000909789 -0.000313097 0.000784055
-0.000883119 -0.000274781 -9.71726e-05
0.000980121 -0.000335397 0.000455192
-0.0003175 -0.000423741 -0.0025
0.0003175 -0.000423741 -0.0025
-0.0009525 -0.000106241 -0.0025
-0.0009525 -0.000423741 -0.0025
-0.000635 -0.000212482 -0.0025
0 0.0003175 -0.0025
-0.000635 -0.000423741 -0.0025
-0.000635 -0.000635 -0.0025
0.0009525 -0.000635 -0.0025
0.0009525 -0.000423741 -0.0025
0.000635 -0.000635 -0.0025
-0.00047625 5.25088e-05 -0.0025
-0.000635 0.000211259 -0.0025
-0.0003175 0.0003175 -0.0025
0.00079375 5.25088e-05 -0.0025
0.000635 0.0003175 -0.0025
0.0009525 0.0003175 -0.0025
0.00015875 0.00015875 -0.0025
0.0003175 0.0003175 -0.0025
0.0003175 -0.000106241 -0.0025
-0.0003175 -0.000106241 -0.0025
0.000635 -0.000423741 -0.0025
0.0003175 -0.000635 -0.0025
-0.0009525 -0.000635 -0.0025
0.0009525 0.000635 -0.0025
-0.0003175 -0.000635 -0.0025
-0.0003175 0.000635 -0.0025
-0.0009525 0.000635 -0.0025
0.000635 -0.000212482 -0.0025
0.0009525 -0.000106241 -0.0025
-0.00079375 0.00047625 -0.0025
-0.0009525 0.0003175 -0.0025
0.00079375 0.00047625 -0.0025
0.000635 0.000635 -0.0025
-0.00015875 0.00015875 -0.0025
-0.00047625 0.00047625 -0.0025
0.00047625 0.00047625 -0.0025
0.0003175 0.000635 -0.0025
0.00111125 0.00047625 -0.0025
0.00127 0.000635 -0.0025
0.00127 0.0003175 -0.0025
0.00047625 0.000105629 -0.0025
-0.0003175 0.000105629 -0.0025
0.00111125 0.00015875 -0.0025
0.00127 0 -0.0025
0.00015875 -0.000529371 -0.0025
0 -0.000635 -0.0025
0 -0.0003175 -0.0025
-0.00015875 -0.000529371 -0.0025
0.00015875 -0.000211871 -0.0025
-0.00015875 -0.000211871 -0.0025
-0.00015875 0.00047625 -0.0025
0.00015875 0.00047625 -0.0025
0 0.000635 -0.0025
-0.00079375 5.25088e-05 -0.0025
0.0009525 0.000105629 -0.0025
-0.00111125 0.00047625 -0.0025
0.00111125 -0.000211871 -0.0025
0.00127 -0.0003175 -0.0025
-0.00111125 -0.000211871 -0.0025
0.00111125 -0.000529371 -0.0025
0.00127 -0.000635 -0.0025
-0.00111125 -0.000529371 -0.0025
0.00047625 -0.000318112 -0.0025
-0.00127 -0.0003175 -0.0025
-0.00127 -0.000635 -0.0025
-0.00127 0.0003175 -0.0025
-0.00127 0.000635 -0.0025
-0.00111125 0.00015875 -0.0025
-0.000635 0.000635 -0.0025
-0.00047625 -0.000318112 -0.0025
0.00079375 -0.000318112 -0.0025
-0.0009525 0.00042643 0.0025
0.0003175 0.000424251 0.0025
-0.000635 -0.0003175 0.0025
-0.0003175 -0.0003175 0.0025
-0.0009525 0.00010893 0.0025
-0.0003175 0.00010893 0.0025
0.00127 0.000635 0.00218063
-0.00111125 -0.00015875 0.0025
-0.00127 -0.0003175 0.0025
-0.0009525 -0.0003175 0.0025
-0.00015875 -0.00015875 0.0025
0 -0.0003175 0.0025
0.00111125 -0.00015875 0.0025
0.00127 -0.0003175 0.0025
0.0009525 -0.0003175 0.0025
0.00015875 -0.00015875 0.0025
0.0003175 -0.0003175 0.0025
0.0003175 0.000635 0.0025
0.000635 0.000635 0.0025
-0.0009525 0.000635 0.0025
-0.000635 0.000635 0.0025
0.0003175 0.000106751 0.0025
0.0009525 0.000106751 0.0025
0.00127 0 0.0025
-0.0003175 0.00042643 0.0025
-0.0009525 -0.000635 0.0025
-0.00127 -0.000635 0.0025
0.0009525 -0.000635 0.0025
-0.0003175 0.000635 0.0025
-0.000635 -4.98196e-05 0.0025
0.00015875 0.000529626 0.0025
0 0.0003175 0.0025
0 0.000635 0.0025
-0.00015875 0.000530715 0.0025
0.00015875 -0.00047625 0.0025
0 -0.000635 0.0025
0.0003175 -0.000635 0.0025
-0.00015875 -0.00047625 0.0025
-0.0003175 -0.000635 0.0025
-0.00015875 0.000213215 0.0025
-0.00079375 -0.000104285 0.0025
-0.00047625 -0.000104285 0.0025
0.00079375 -0.000105375 0.0025
0.000635 -0.0003175 0.0025
0.000635 -5.1999e-05 0.0025
0.00047625 -0.000105375 0.0025
-0.00111125 0.000213215 0.0025
0.00111125 -0.00047625 0.0025
-0.00111125 -0.00047625 0.0025
-0.00111125 0.000530715 0.0025
-0.00127 0.0003175 0.0025
-0.00127 0.000635 0.0025
0.00015875 0.000212125 0.0025
0.00111125 0.000529626 0.0025
0.0009525 0.000635 0.0025
0.0009525 0.000424251 0.0025
0.00127 0.000635 0.0025
0.00127 0.0003175 0.0025
0.000635 0.000424251 0.0025
-0.000635 0.00042643 0.0025
0.00047625 0.000318876 0.0025
0.000635 0.000213502 0.0025
-0.00047625 0.000322146 0.0025
0.00047625 -0.00047625 0.0025
0.000635 -0.000635 0.0025
0.00127 -0.000635 0.0025
-0.00047625 -0.00047625 0.0025
-0.000635 -0.000635 0.0025
0.00079375 -0.00047625 0.0025
-0.00079375 -0.00047625 0.0025
0.00079375 0.000318876 0.0025
CELLS 941 4705
4 0 1 2 3
4 4 5 6 7
4 8 9 10 11
4 4 5 7 12
4 13 14 15 16
4 1 2 3 15
4 2 3 15 17
4 13 14 18 19
4 13 18 19 20
4 21 22 23 24
4 2 3 17 25
4 8 11 26 27
4 8 10 11 26
4 10 11 26 28
4 10 26 28 29
4 22 30 31 32
4 5 22 30 32
4 30 33 34 35
4 16 36 37 38
4 36 37 38 39
4 1 13 15 40
4 9 41 42 43
4 7 9 10 41
4 42 43 44 45
4 41 42 43 44
4 42 44 45 46
4 6 47 48 49
4 5 33 47 50
4 6 47 49 51
4 7 41 52 53
4 3 37 39 54
4 3 17 25 54
4 36 37 39 54
4 36 39 54 55
4 17 25 54 56
4 36 54 55 56
4 17 36 54 56
4 28 41 43 57
4 41 43 44 57
4 44 45 57 58
4 43 44 45 57
4 41 42 44 52
4 4 6 7 59
4 4 7 12 59
[...]
POINT_DATA 301
SCALARS 1e+11_E_norm_0_[V/m] float 1
LOOKUP_TABLE jet
16702.8
6584.99
22477.7
36069
24632.3
7634.75
26703.8
21319.7
28289.2
27697.2
34222.4
9888
26274.3
15710.2
17244.9
21860.1
40729.6
6999.84
26388.2
15063
2355.99
17272.2
14454.2
33473.8
4803.22
3528.95
5266.63
1653.6
4357.8
9827.7
20025.5
3375.2
30583.1
20480.9
6227.07
31555.4
25376.6
46540.1
29714.4
32219.2
23529.2
5543.09
19365.3
1574.31
17965.4
6466.9
31045.7
14063.2
29554.4
32609.9
792.373
8798.18
23099.6
6068.67
26528.3
17086
2988.28
1583.54
4039.86
44071.2
4805.62
4931.17
2165.57
26848.2
10191
2921.94
4869.18
29911.3
32623.2
47484.6
46015.6
32105.3
45063.4
14663.2
17592.2
7758.29
8008.33
39340.5
3997.34
5847.91
38304.9
27388.9
28416
38916.2
40992
33320.9
31242.5
3481.38
14111.2
1336.64
22460.2
28145.5
25935.1
29376.7
35930.7
24643.9
40154.2
33206.3
23960
23703.1
40800.1
47223.2
43198.1
40320.8
26729.6
33612.8
33072.2
3006.32
6559.16
18120.9
3395.06
7427.28
13659.5
38283
30928.1
41352.6
30028.8
17760.6
2479.43
1733.15
2116.3
3635.76
25368.3
44752.6
5262.03
30066.4
23429.3
1556.12
5409.48
16038.9
5400.82
19982.2
14890.7
4198.94
5786
2484.1
1058.11
2463.03
39529.2
3437.38
4453.06
65.0795
12289.3
4825.71
4043.9
4124.69
6007.51
11447.2
39019.1
37646.4
17737.2
12088.3
39358.2
40897.3
20235.1
3456.42
20416.1
12447.7
20795.3
22717.8
9732.73
9079.06
15113.6
22633.8
17286.2
15167.8
7795.2
10006
14686.5
19886.7
18155.8
19341.5
14235.5
14940.2
9246.91
23271.3
21106.4
21996.8
20255.2
17632.4
19408.6
10070.5
7990.18
23951.1
22207.3
10148.7
17151.1
8014.93
13039.3
8086.05
14507.9
14766.2
23068.2
18465.5
20060.8
19203.2
4033.89
1424.72
829.961
17549.6
23202.2
4592.27
1068.94
23636.3
25140
20896.3
24448.6
20808.4
20774.5
22123.7
21131.9
20965.6
12425.7
11060.7
5047.93
4535.9
1099.28
3648.78
4060.24
1322.72
5113.28
17635.7
800.756
1182.25
1409.25
1517.86
4901.61
14770.7
20888.2
11666.2
10462.9
21913
16764.8
21527.3
8523.35
21908.6
5456.12
4989.4
1033.65
8959.91
25676.8
25007.3
6703.22
1052.28
8247.77
25900.3
22728.8
20113.8
15118.5
7855.44
15105.6
19771.9
8468.85
2684.19
21889.8
7839.99
1120.3
9770.56
20110.3
15502.8
24793.8
21442.8
25495.9
24766.7
21784.8
21523.2
19716.3
22094.6
20036.3
21358.9
11755.6
18272.2
13348
17215.2
17189.3
20008.8
4805.98
4841.77
4177.8
4076.61
812.448
1200.76
21909.1
4254.07
8149.37
9782.66
1385.94
1242.06
16476
16064.2
21041.9
15761.1
20769.5
20137.1
15172.4
1484.33
18045.3
15155.7
13109.4
14095.2
11561.3
VECTORS 1e+11_E_abs_0_[V/m] float
1609.97 16374.7 2873.82
577.766 6517.52 741.755
38.4761 20922.2 8216.13
646.236 35530.4 6176.24
542.34 24616.2 704.256
951.711 7575.16 24.0906
21.5377 26668.6 1370.66
261.896 21306.9 691.003
4377 27797.7 2900.12
1055.92 27092 5660.51
130.894 34213.4 773.405
6979.84 7002.37 145.758
2274.22 25801.2 4412.14
2806.84 13944.7 6669.32
111.08 14927.1 8634.56
1007.14 21831.9 468.143
729.613 40587 3326.72
524.035 6966.79 432.397
2676.08 26163.6 2155.38
629.282 15049.8 31.7157
1696.75 1626.71 159.778
2685.21 16607.6 3912.42
485.512 14443.2 287.742
3077.42 33307.2 1286.15
3893.69 2757.87 551.576
244.335 1812.5 3018.05
815.808 5091.47 1071.82
1140.17 1157.53 307.48
469.011 4128.61 1313.39
6697.47 7192.11 32.582
797.189 20005.6 405.228
1046.39 3203.95 178.168
206.56 30582 158.87
1891.84 20188.6 2882.73
4159.87 4628.7 216.964
3429.47 31328.7 1578.36
442.352 25363.1 699.688
245.024 46533.3 759.762
927.298 29697.5 381.775
399.38 32214.1 416.14
480.576 23522.6 279.675
1120.64 5412.26 421.255
2389.95 18960.4 3131.54
551.814 188.161 1462.38
306.039 17958.4 398.223
4523.37 4611.53 306.064
3265.18 30867.3 615.187
2117.29 13312.8 4007.27
649.474 29377.1 3167.14
3319.26 32411.3 1378.14
594.372 500.555 154.987
5689.35 6710.42 97.4966
1036.92 23069.7 551.327
218.682 1215.1 5941.75
474.325 26515.1 687.465
1827.34 16983.5 392.55
97.107 2605.88 1459.36
830.457 1327.09 238.29
252.441 4016.94 347.708
263.434 44068.5 403.42
3361.82 3422.6 279.165
3569.99 3258.66 976.096
295.714 2145.23 15.0763
1179.04 26753.1 1925.44
641.245 9122.18 4498.01
2052.67 1965.36 679.472
2962.46 3723.2 1034.63
2531.98 29708.1 2387.16
3179.31 32402.8 2055.78
625.083 47473.9 789.112
13.6522 45984.9 1680.92
528.851 32071.8 1368.29
167.288 45059.1 602.409
756.238 12937.2 6860.61
1082.29 17555.7 334.385
4730.21 6149.18 60.6994
273.957 2849.77 7479.12
650.526 39109.2 4210.04
1731.76 3302.34 1440.25
4157.88 4111.22 89.6918
181.675 38297.9 709.519
1495.94 27103 3652.66
2832.73 28230.3 1580.72
347.962 38913 356.66
347.782 40983.7 745.873
2981.05 33160.8 1325.22
106.243 31234.6 696.509
1285.73 3205.18 440.147
173.466 14098.6 569.016
59.3024 1191.88 602.095
266.161 22457.4 242.332
3311.12 27944.6 553.829
1014.17 25912.3 394.521
179.265 29358.3 1024.45
517.749 35927 6.2152
1044.09 24542.8 1970.89
1012.32 40140.1 331.047
227.813 33204 314.845
93.2131 23662.2 3764.58
0 23703.1 0
399.729 40792.8 663.136
134.14 47222.3 253.472
514.257 43137.3 2232.03
357.7 40290.6 1518.92
418.07 26706.2 1038.74
541.832 33580 1380.23
191.611 32804.1 4197.51
940.866 2844.98 242.508
4682.64 4578.05 369.984
502.931 18113.6 102.272
598.82 3340.96 76.5914
5554.08 4930.7 69.7119
350.648 13655 10.5433
494.446 38273.6 687.818
2494.63 30802.9 1228.26
1336.29 41324.2 747.937
2834.17 29888.7 600.345
497.468 17748.1 440.839
55.2608 2468.81 222.418
1582.86 705.912 6.38196
1665.51 780.135 1046.99
540.249 3593.59 114.071
145.463 25363.4 478.419
1055.8 44738.4 398.136
761.08 5197.75 305.176
460.446 30054.2 723.865
677.849 23392.2 1131.83
980.785 1042.88 609.9
3186.61 4276.49 905.383
417.841 16027.5 440.023
1315.94 5125.64 1079.31
154.852 19981.3 102.513
205.543 14877.8 585.589
236.106 4169.5 436.632
4343.5 3795.85 450.923
1295.79 2107.69 222.121
346.197 981.566 190.459
153.389 2439.19 305.531
661.602 39523.2 198.413
247.237 3409.87 356.763
1628.99 4144.27 33.2827
47.6685 44.156 3.64662
1109.15 11544.6 4064.36
955.387 4487.74 1494.97
1821.51 3602.78 234.838
2196.77 3491.02 0
77.6033 6004.85 161.118
815.365 11414.8 273.361
105.499 39016.9 397.808
514.22 37637.4 645.648
732.929 17683.6 1166.03
1414.96 11921.5 1415.65
176.34 39355.4 436.843
436.311 40893.1 392.435
2075.41 20021.3 2073.83
1648.41 2996.93 497.966
1163.2 20377.1 485.254
512.274 12181.6 2507.89
961.743 20710.8 1606.81
313.186 22708 589.12
1379.81 9614.84 614.098
194.792 8789.38 2266.75
507.696 14851.6 2755.7
1286.25 21441.8 7133.34
393.365 17257 925.474
289.842 15054.9 1824.11
347.402 7786.44 125.636
118.246 9991.06 533.32
881.383 14660 6.08353
700.277 19872.1 298.769
968.14 18082.4 1312.6
160.12 19325.4 771.973
2260.11 14052.2 275.801
165.691 14723.9 2527.68
131.407 9113.53 1559.36
1775.07 22223.4 6672.83
1405 20642.7 4169.7
1132.6 21967.4 104.88
902.877 20215.9 881.422
103.756 17587.5 1253.07
128.385 19408 80.1497
812.32 9811.3 2119.78
763.352 7953.63 10.516
256.4 23703.7 3424.2
499.003 21948 3346.58
858.196 9867.43 2212.12
1635.72 16930.9 2197.92
242.347 7886.36 1409.17
1240.05 12961.1 704.621
53.8539 8032.34 928.877
1352.73 14438.6 418.96
493.29 14758 28.1684
315.263 23021.4 1435.39
1703.18 18379.3 527.234
905.128 20038.3 288.736
313.441 19199.8 181.135
38.083 4029.2 190.802
1007.43 1007.43 0
53.8565 827.667 30.0456
114.85 17270.7 3114.49
1279.44 23153.7 779.908
198.392 4567.25 435.692
460.163 964.827 0
2178.68 23510.8 1081.55
337.989 24926.4 3252.56
9.04386 20896.2 85.7156
196.171 24163.6 3717.3
92.0276 20530.4 3388.55
67.2389 20518.4 3250.86
1550.86 22044 1056.07
0.233846 20493.2 5155.93
3.11283 20965.6 0.156504
767.778 12393.8 448.954
275.971 11047.5 464.514
1178.34 4799.23 1029.82
43.0494 4486.28 667.735
922.941 511.901 307.5
391.121 3610.13 357.142
1027.75 3920.29 246.149
732.734 1101.22 0
1893.17 4540.04 1396.26
15.9568 17484.8 2301.69
362.679 693.217 170.659
945.144 710.227 0
389.412 1346.41 146.69
1357.62 678.81 0
414.539 4857.42 509.234
511.679 14761.8 8.98752
612.571 20730.7 2485.76
64.0845 11377.8 2576.93
427.186 10452.5 187.343
661.066 21848.9 1539.79
540.739 16756.1 22.45
426.492 20981.4 4798.31
406.623 8250.42 2100.63
815.488 21866 1095.75
3400.29 4131.13 1068.22
491.686 4899.29 805.808
57.4075 1032.05 0
717.641 8807.88 1478.64
971.524 25596.7 1779.04
548.825 24325.9 5771.95
585.905 6650.04 605.684
71.0868 1043.06 119.449
228.437 8239.05 302.615
1578.55 25840.9 764.949
733.714 22558.8 2676.15
131.261 20113.3 77.3059
874.098 15093.2 5.21693
338.069 7847.05 132.419
918.285 15077.7 1.99525
18.5005 19700.1 1683.66
114.572 8143.42 2322.28
1509.53 1467.95 1664.73
404.553 21866.9 916.022
731.144 7805.61 58.0595
694.629 694.629 538.57
930.121 9592.65 1606.17
130.563 20109.7 81.8044
71.5015 15367.2 2044.92
1038.25 24675.2 2188.6
3.26294 21436.1 535.841
44.2261 25230.3 3670.26
1054.24 24652.5 2129.09
0.227906 21042.5 5638.21
0.0279064 21523.2 0.00325663
323.105 19713 169.258
575.031 21615.8 4538.52
324.49 20033.1 148.795
82.9654 21052.7 3602.3
480.256 11745.3 107.771
233.808 18174.4 1874.05
752.93 13323.2 308.857
740.815 17198.2 189.689
680.743 17170.2 439.717
1106.26 19947.2 1111.9
455.129 4580.64 1381.33
574.087 4751.76 730.736
23.9128 4151.75 465.189
583.505 4034.21 58.7985
398.832 707.817 0
955.476 727.248 0
1180.02 21877.3 13.7888
282.518 4207.58 559.999
374.134 8132.27 371.946
847.096 9745.85 33.725
766.467 1154.71 0
404.79 1064.86 494.905
173.183 16425.1 1282.84
90.4475 15407.6 4544.7
676.892 21005.4 1038.15
759.261 15680.7 1397.33
1907.96 20678.9 338.794
91.6136 20084.8 1446.64
501.78 15164.1 6.38956
1049.58 1049.58 0
11.9058 17597.5 3995.1
504.275 15147.1 79.97
855.302 13035.7 1094.01
224.629 14077.9 660.48
57.9923 11516.7 1012.99
VECTORS 1e+11_E_real_0_[V/m] float
-681.294 6896.47 1294.24
-243.845 2513.69 331.959
-6.63021 -9680.08 3578.4
273.808 15319.4 2792.21
247.885 -10652.6 321.675
415.15 3683.95 -21.3613
-0.754826 -11503.6 -590.976
107.022 -8927.71 304.103
1955.9 -12435.7 -1236.93
441.209 -11615.6 2550.06
71.1261 -15070.5 -331.791
3064.59 -3074.64 73.1465
-970.27 -11088.1 1996.54
1191.31 5797.05 -2963.27
-50.1654 -7058.02 -3765.62
446.874 9165.35 212.006
-315.568 17617.3 -1549.6
223.171 -3508.66 201.479
-1197.03 -11732 -918.203
-273.879 -6916.76 23.4767
-802.825 -769.685 75.5996
1224.15 7638.35 1694.81
217.122 6495.53 128.015
1330.6 14523.4 -609.371
1737.99 1231.01 246.202
50.4302 453.936 1343.3
-378.022 -2289.58 468.901
546.857 -555.182 147.476
200.038 -1785.53 581.767
-2966.09 -3182.22 -26.0707
334.71 8874.13 -185.723
444.25 1425.84 80.0989
77.0693 13496.1 61.7802
-865.138 9176.12 -1246.03
-1834.6 2037.72 -94.9911
-1501.22 13671.3 742.281
-199.627 10993.5 295.725
108.609 20402.5 337.006
-409.89 13266.7 -164.163
-164.964 14380.8 186.397
212.853 10246.9 -128.489
-492.894 -2104.71 195.825
-1081.52 8686.77 1350.6
162.66 -0.570921 648.884
132.626 8058.23 168.874
-1998.23 2036.03 -142.583
-1426.32 13517.1 -312.669
894.953 -5579.02 -1790.69
282.56 -12568.1 -1434.97
1474.12 -14374.9 557.789
-314.136 264.553 -81.9135
2493.51 -2946.57 -49.0939
-445.983 10555.8 -257.051
-40.179 -157.226 -2616.62
-216.311 11389.3 306.572
-797.258 7399.95 -191.218
66.8152 1067 -646.463
-389.493 630.242 103.002
-116.948 1774.56 152.685
-119.721 -19294.6 -163.171
-1428.09 -1449.15 107.686
1596.75 1457.5 -436.579
-137.761 -877.788 2.99333
-529.846 11377 842.077
-248.343 3651.77 -1994.13
-949.548 -909.161 314.319
1275.87 1599.96 447.793
1135.58 13312.2 -998.772
1388.2 14144.6 947.365
-278.59 20849.2 350.516
9.58556 20325.1 -685.995
235.098 14173.1 589.071
70.4067 -19824.3 -264.332
325.682 6188.79 -3007.18
491.107 7864.28 -158.53
2078.22 2704.85 37.1423
126.331 1751.74 3292.33
-285.759 17518.1 1781.52
772.914 -1682.27 647.427
-1815.14 1799.25 -45.3589
83.3129 16583.7 310.073
-685.066 -12154.5 1562.23
-1229.89 -12306.4 -731.925
-150.494 17401.4 -151.301
157.519 17904.6 323.487
1325.26 14698.5 538.914
-48.9447 14004.1 304.902
562.089 -931.904 193.137
75.2384 -6383.52 -254.083
6.46683 -559.894 -258.933
-107.276 9702.89 -114.902
1475.89 12416.6 -213.349
438.079 -11741.6 176.705
81.5499 -12985.1 446.718
227.048 -16141.9 4.82298
-454.418 -10557.9 858.183
425.703 17850.2 130.709
-95.2519 14343.9 143.356
42.0911 9966.45 -1685.72
0 10216.3 0
179.338 -18174.2 -295.602
-60.0646 -20819.1 -74.8041
-220.716 18794 -1047.9
155.625 17975 -617.694
178.086 12198.2 437.072
233.382 15074.9 600.886
-86.8661 -14071.1 1902.93
-427.54 1273.45 -105.294
-2059.56 2015.57 168.08
224.852 8098.89 46.1862
262.534 1463.67 -33.753
2441.28 2169.17 -36.044
156.169 6134.57 6.64546
221.175 16739.7 307.179
-1106.09 13685.2 -502.071
-576.9 18419.6 313.98
-1259.92 13253.7 225.026
210.001 7678.34 201.449
18.1643 1028 -105.23
-710.989 320.285 -1.9289
-755.653 361.458 -467.575
-249.682 1528.2 -48.3409
42.995 11607.6 -219.046
-457.295 -19750.3 -226.314
330.939 2253.05 129.864
-195.278 13017.8 322.625
-306.466 10053.4 504.627
489.923 -530.104 268.235
1414.11 1888.51 -394.97
184.262 6938.25 190.662
584.583 -2286.36 472.802
-62.2334 8686.4 -53.8626
88.0419 6419.98 260.263
97.9993 -1875.47 199.322
-1916.19 -1674.59 -198.931
-572.19 912.256 98.7412
141.051 410.58 85.4157
-100.942 1109.47 -131.864
-270.398 17507.9 75.1656
-132.84 1549.34 162.69
704.657 -1782.77 -15.8252
33.9693 31.4662 2.59864
509.622 -5420.97 1769.83
426.632 -1926.49 -640.06
804.461 -1593.71 -108.376
-960.191 1518.05 0
38.6595 2672.73 71.4853
361.928 -5515.21 131.171
-59.0661 17405.8 169.665
209.491 16398 -288.228
-326.417 7481.51 520.211
616.92 -5448.61 639.752
-70.9527 -17444.6 186.502
-177.089 -18233.7 -167.204
923.945 -9135.5 942.315
736.183 -1095.07 -214.324
-520.098 -9018.51 -209.126
-211.305 -5228.94 1129.12
411.489 9544.46 699.158
-131.519 10404.8 -259.598
620.953 4405.42 264.083
90.313 4075.08 975.594
221.505 6872.56 1201.52
552.416 9924.84 3075.83
-146.435 7929.61 404.029
163.578 6954.28 776.998
-161.068 3610.09 58.2496
-61.9315 4572.12 -244.171
-408.642 6796.94 2.82055
308.821 9135.98 125.266
428.099 8282.34 560.184
-74.2378 8959.98 336.635
-993.774 6456.6 -114.662
76.8204 6826.54 -1075.02
-60.0932 4182.37 697.844
-761.564 10242.7 2879.35
-606.665 9526.36 1810.47
498.405 10099.5 -48.7536
-391.931 9350.06 -378.558
-48.105 8063.2 543.143
-59.5241 8998.26 -37.1604
364.523 4487.58 920.975
353.918 3687.6 -4.8756
116.251 10855.8 1478.08
-226.705 10092.7 -1441.76
-399.204 4523.68 -961.718
-727.524 7788.86 947.689
103.439 3651.15 -619.999
528.733 5974.03 305.016
24.9687 3724.09 -409.496
595.989 6620.27 191.384
228.707 6842.34 -13.0599
130.059 10583.2 625.315
-737.622 8481.42 221.979
-393.373 9196.12 131.098
145.323 8901.72 83.981
-17.6567 1868.09 -99.1
467.083 467.083 0
-24.9699 383.737 13.9303
53.2486 8007.33 1365.68
-550.395 10608.1 344.717
91.9819 2117.55 212.995
213.349 447.33 0
-941.498 10798.2 460.47
145.28 11419 1396.58
4.19307 9688.25 26.0879
85.1092 11078.9 1603.32
42.6674 9518.65 -1472.42
-31.1745 9513.12 -1412
666.353 10168.2 458.556
-0.10842 9501.42 2223.79
1.44323 9720.45 -0.0725611
-332.377 5722.84 193.467
125.397 5061.81 -184.335
-533.962 2200.51 -453.86
-21.1617 2079.95 -317.247
427.91 237.336 -142.568
-176.312 1675.8 -155.282
-471.522 1806.4 -114.907
-339.723 510.568 0
859.199 2086.92 613.55
7.39819 8106.62 982.786
-168.151 321.401 -79.1238
438.204 329.288 0
-178.835 624.267 -66.1471
-629.443 314.721 0
179.943 2242.39 213.708
-237.233 6844.13 4.16695
-274.367 9497.74 1093.2
29.712 5275.18 1122.42
197.088 4437.4 82.1939
296.965 9209.87 677.884
-249.462 7059.95 8.70796
-195.848 8823.92 2165.65
-170.078 3450.89 937.27
366.873 9208.81 498.346
1463.26 1780.27 465.218
212.287 2055.87 -352.968
-24.0118 431.675 0
310.831 3698.4 -664.009
434.475 10864.2 799.33
-240.669 10265.1 2590.95
-247.793 2825.05 -271.723
32.8685 436.337 53.8037
95.548 3446.13 131.147
-708.534 10961.6 -340.976
329.474 9520.6 1200.58
54.9022 8412.74 32.3346
365.608 6312.99 2.18208
-141.404 3282.17 55.3868
-384.09 6306.51 -0.83455
-7.73816 8239.92 755.653
-47.9217 3406.14 -1028.12
-652.745 622.343 -729.238
-181.343 9224.29 407.037
302.149 3290.44 -7.91785
290.541 290.541 225.267
-388.225 4052.7 -720.955
-54.6103 8411.25 34.2162
12.5202 6438.59 906.245
465.896 10434 967.015
-1.36479 8966.05 235.378
-19.8363 10671.3 1648.11
-473.6 10424.7 941.262
0.0953259 8801.43 2530.01
0.0116724 9002.49 0.00136215
-135.145 8245.31 70.7953
-250.29 9051.03 2052.74
135.724 8379.22 -62.2364
34.7018 8805.7 -1615.18
-210.539 4926.95 -53.2583
-97.7943 7601.76 815.813
325.53 5626.16 140.402
-321.428 7260.82 91.8493
-287.949 7245.14 -205.413
-503.944 8400.14 -495.541
-206.01 1927.68 610.551
-252.458 1999.9 -321.277
-10.002 1736.55 181.128
-237.418 1697.46 23.7224
166.819 296.058 0
-399.645 304.185 0
-529.461 9177.64 -6.33866
118.168 1759.9 227.669
156.489 3401.47 155.573
-366.146 4115.01 -26.1525
320.589 482.977 0
175.722 447.473 216.289
-85.6467 6920.93 -565.085
-37.8313 6444.53 -2049.19
294.062 8890.01 456.87
334.69 6568.86 628.311
-862.131 8747.6 148.909
-43.7578 8475 652.539
-209.879 6342.67 -2.67255
-439.005 439.005 0
4.97983 7360.47 1801.32
210.922 6335.56 33.4489
389.534 5484.48 489.349
-116.57 5946.06 284.425
-24.2563 4817.09 469.692
VECTORS 1e+11_E_imag_0_[V/m] float
1458.72 -14851.6 -2565.9
523.787 -6013.27 -663.328
37.9006 18548.2 -7395.94
-585.364 -32058.2 -5509.04
-482.375 22191.9 -626.499
-856.391 -6619.04 11.1379
-21.5244 24059.9 1236.71
-239.031 19346.3 -620.489
-3915.68 24860.9 2623.1
-959.32 24475.6 -5053.57
-109.883 30715.4 698.62
-6271.08 6291.24 -126.075
2056.85 23297.1 -3934.56
-2541.48 -12682.6 5974.85
99.1066 13153 7770.18
-902.573 -19814.8 -417.386
657.838 -36564.1 2943.78
-474.138 6018.76 -382.588
2393.43 23385.7 1950.01
566.557 13366.2 -21.3244
1494.81 1433.1 -140.762
-2389.93 -14746.8 -3526.28
-434.258 -12900.1 -257.697
-2774.89 -29974 1132.63
-3484.28 -2467.89 -493.58
-239.074 -1754.74 -2702.62
722.939 4547.63 -963.81
-1000.47 1015.7 -269.805
-424.213 3722.55 -1177.51
6004.87 6449.8 19.5424
-723.518 -17929.7 360.162
-947.399 -2869.19 -159.148
-191.644 -27442.9 -146.366
1682.44 -17982.7 2599.53
3733.46 -4156.03 195.064
3083.44 -28188.4 -1392.92
394.746 -22856.7 -634.122
-219.638 -41822.1 -680.93
831.789 -26569.4 344.678
363.718 -28826 -372.06
-430.867 -21173.5 248.413
1006.43 4986.25 -372.973
2131.23 -16853.4 -2825.31
-527.296 188.16 -1310.53
-275.808 -16049 -360.643
4058.07 -4137.73 270.823
2937.17 -27750.3 529.805
-1918.84 12087.4 3584.92
-584.787 26552.9 2823.4
-2973.96 29049.1 -1260.21
504.575 -424.932 131.572
-5113.82 6028.88 84.2341
936.107 -20513.1 487.736
214.96 1204.89 5334.58
422.13 -23944.4 -615.322
1644.24 -15286.6 342.828
-70.4662 -2377.42 1308.37
733.454 -1167.89 -214.879
223.718 -3603.72 -312.392
234.658 39620.1 368.948
3043.42 3100.68 -257.559
-3192.99 -2914.54 873.019
261.665 1957.42 -14.7762
1053.28 -24213.4 -1731.54
591.203 -8359.35 4031.82
1819.83 1742.43 -602.4
-2673.64 -3361.9 -932.71
-2263.04 -26558.6 2168.17
-2860.23 -29152.5 -1824.48
559.568 -42650.7 -706.991
-9.72108 -41249.3 1534.57
-473.721 -28770.2 -1235
-151.75 40463.8 541.318
-682.515 -11360.9 6166.43
-964.449 -15695.8 294.417
-4249.22 -5522.34 -48.0091
-243.09 -2247.8 -6715.48
584.402 -34966.3 -3814.53
-1549.71 2841.72 -1286.53
3740.75 -3696.6 77.3769
-161.446 -34521.2 -638.178
1329.86 24224.8 -3301.72
2551.8 25406.7 1401.06
313.734 -34805.4 322.978
-310.065 -36865.8 -672.074
-2670.28 -29725.2 -1210.69
94.2968 -27919.2 -626.226
-1156.36 3066.71 -395.509
-156.3 12570.7 509.138
-58.9487 1052.19 543.573
243.585 -20253.1 213.359
-2964 -25034.5 511.086
-914.668 23099.3 -352.736
-159.642 26330.5 -921.919
-465.31 32096.5 3.92015
940.014 22155.8 -1774.25
-918.465 -35952.8 -304.15
206.944 -29946 -280.315
-83.1686 -21460.9 3366.07
0 -21388.4 0
-357.241 36520.5 593.607
119.941 42385.3 242.182
464.484 -38828 1970.75
-322.072 -36058.7 1387.65
-378.243 -23757.6 -942.315
-488.994 -30006.1 -1242.56
170.789 29633 -3741.39
838.116 -2544.06 218.457
4205.39 -4110.47 -329.602
-449.867 -16202.2 -91.2495
-538.203 -3003.28 68.7531
-4988.78 -4427.92 59.6706
-313.951 -12199.4 -8.18524
-442.22 -34418.8 -615.415
2236.01 -27595.9 1120.96
1205.35 -36992 -678.842
2538.73 -26789.4 -556.576
-450.97 -16001.2 -392.119
-52.1902 -2244.6 195.95
1414.19 -629.07 6.08348
1484.23 -691.346 936.782