# vtk DataFile Version 2.0
Solution data
ASCII
DATASET UNSTRUCTURED_GRID
POINTS 301 float 
-0.000611422 0.000635 -0.00118561
-0.00065011 0.000227844 -0.00105485
-3.50918e-06 0.000635 -0.000650796
0.000100974 0.000635 -0.00143547
-0.000695798 -0.000118122 0.000355892
-0.000642766 2.5254e-05 0.00104394
-0.000582192 0.000248008 0.000408113
3.1431e-05 5.93208e-06 0.000648048
0.000630237 -0.000635 -0.000314534
0.000502302 -0.000635 0.000515794
0.000612815 3.11036e-05 1.21554e-05
0.00127 -0.000635 7.89525e-05
-0.000530634 -0.000635 0.00046866
-0.000627273 -0.000635 -0.00116971
8.21896e-06 -0.000635 -0.00074444
-0.000167186 -3.59938e-05 -0.00118212
1.14088e-05 -0.000635 -0.00149239
0.000455156 4.21862e-05 -0.000832756
-0.000609408 -0.000635 -0.00037412
-0.000713166 -0.00019508 -0.000599353
-0.00127 -0.000635 -0.000834225
-0.000630332 -0.000635 0.00120757
-0.000946805 -0.000193316 0.00145282
-0.000553413 -0.000635 0.00198553
-0.00127 -0.000635 0.0016663
0.000680811 0.000635 -0.000906468
0.00127 0 -0.000368336
0.00127 -0.000635 -0.000755304
0.00127 0 0.000423542
0.00127 0.000635 -5.88352e-05
-0.000908132 0.000256472 0.00168546
-0.00127 0 0.00168675
-0.000717254 -1.22866e-05 0.00179023
-0.000637381 0.000635 0.00129888
-0.00127 0.000635 0.00168942
-0.000633903 0.000635 0.00199501
0.000715993 -0.000170175 -0.00150472
6.05947e-05 2.75108e-05 -0.00174125
0.000625835 -0.00022303 -0.00208252
0.000551001 0.000192766 -0.00211964
-0.000792255 -0.000108713 -0.00161108
0.000823981 -8.76488e-05 0.000803297
0.000602022 -0.000635 0.00124442
0.00127 -0.000635 0.000894476
0.000871939 -0.000247509 0.00149052
0.00127 -0.000635 0.00170111
0.000642442 -0.000635 0.00191557
-0.000663829 0.000635 0.000579273
-2.09563e-06 0.000635 0.000515939
-0.00058087 0.000635 -0.000164566
-0.00127 0.000635 0.000876353
-0.00127 0.000635 5.20454e-05
0.000374371 -1.91855e-05 0.00125903
0.000649848 0.000635 0.000886959
0.000571343 0.000186923 -0.00138556
0.000945372 0.000174689 -0.00162546
0.00127 0 -0.00105803
0.00127 0 0.00111469
0.00127 0 0.0018165
-9.9723e-05 -0.000191161 0.000149919
0.00127 0.000635 0.000584047
0.00127 0.000635 0.00122335
-0.00127 -9.8787e-07 0.000862364
0.000265482 -0.000135598 -0.00127044
0.000639984 -0.000635 -0.00112713
0.00127 0.000635 -0.000703966
0.00127 0.000635 -0.00133913
0.000645053 0.000635 0.00144364
0.00063825 0.000635 0.00195539
8.47695e-05 1.19818e-05 0.0019267
6.65702e-06 0.000635 0.0016583
0.000660092 -9.67737e-06 0.00176506
-9.78561e-05 0.00030236 6.43061e-05
3.69845e-07 0.000635 0.00106267
0.000928454 0.0002991 0.00151256
0.00127 0.000635 0.00186126
-0.000106271 -0.000635 0.000934045
9.69166e-06 -0.000635 0.00147881
0.000896664 -0.000277757 -0.000843967
0.00127 -0.000635 -0.00162207
-7.93299e-06 0.000327175 0.00218004
0.000672326 0.000635 -0.000339286
0.000664104 0.000635 0.000256736
-5.44723e-05 -0.000303963 -0.00209421
-0.000334864 -0.000241177 -0.00167313
-0.00063033 -0.000635 -0.00189791
-0.000476393 -7.78516e-05 -0.00220411
-0.000299108 0.000335761 0.00081682
-0.000886496 0.000181815 -0.000504759
-0.00127 -1.49815e-05 -0.000790245
0.00069253 0.000460125 -0.00145189
0.000665774 0.000635 -0.00196109
-0.000469967 0.00024725 -0.000480562
-0.000710037 0.000105092 -7.82635e-05
-0.000180229 -2.06522e-05 -0.000349907
0.000618475 0.000343193 0.000484287
-0.00036472 -0.000231783 0.00164389
0.000380032 3.58785e-05 0.0022188
0 0 0.0025
0.000711591 0.000635 -0.00145187
0.000214821 -0.00027665 -0.000229425
4.64507e-06 -0.000635 -9.05641e-06
5.78438e-05 -0.000635 0.00200433
2.54119e-05 0.000635 -0.00199456
0 0 -0.0025
-0.000357852 0.000277775 -0.00217316
-1.55329e-05 -0.000635 0.000494596
-0.00127 0.000217826 -0.00207536
-0.00127 0.000635 -0.00163975
-0.000882401 0.000228713 -0.00214245
-0.00127 0 -0.00165582
-0.00127 -0.000635 -0.00166728
-0.000953995 -0.000258983 -0.00221433
-0.000429067 0.000241445 -0.00168789
-0.000625708 0.000635 -0.00197097
8.54406e-06 -0.000635 -0.00200511
0.000639319 -0.000635 -0.00187426
0.0008845 0.000217412 0.00219547
-0.00127 -0.000213826 -0.00123336
-0.00127 -0.000214117 -0.00208006
-0.00127 0 -0.0025
-0.00127 0.000212005 -0.00121953
-0.000117003 1.23774e-05 0.00124133
0.00014581 0.000635 -6.28763e-05
-0.00127 -0.0003175 0.0020905
0.000544213 -0.000219953 0.00219154
-0.000661708 -0.000120279 0.00227805
-0.00127 0.000635 -0.000779709
0.00127 0.000635 -0.00193096
0.000916281 -0.000292303 0.00220307
-0.00127 0.000242116 -0.000367736
-0.000866766 0.0003007 -0.0015742
-0.000916236 7.0018e-05 0.00224156
-0.00127 -0.000236283 -0.00038939
-0.00127 -0.000635 -9.63562e-07
-0.00127 0.0003175 0.00209821
-0.00127 0 0.0025
-0.00127 -0.000225016 0.00126601
0.000411937 -0.000305856 0.0017069
-0.00127 0.000228201 0.00128041
-0.00127 -0.000231951 0.000437597
-0.00127 -0.000635 0.000832642
-0.00061359 0.000635 -0.000688578
-0.00127 0.000220804 0.000460316
-0.00127 -1.68789e-05 3.65592e-05
0.00127 0 -0.00152747
0.00127 0 -0.00197145
-0.000263854 -3.38532e-05 -0.000778845
-0.000351109 0.000266433 0.00156102
-0.000405837 4.53041e-05 0.00209142
-0.000635 0.000217861 0.0025
0.000901753 0.000212756 -0.000573015
-0.000381311 -0.000319215 -0.000137024
0.000191068 0.000199132 -0.00024874
0.000619849 -0.000244544 -0.000565083
-0.000909789 -0.000313097 0.000784055
-0.000883119 -0.000274781 -9.71726e-05
0.000980121 -0.000335397 0.000455192
-0.0003175 -0.000423741 -0.0025
0.0003175 -0.000423741 -0.0025
-0.0009525 -0.000106241 -0.0025
-0.0009525 -0.000423741 -0.0025
-0.000635 -0.000212482 -0.0025
0 0.0003175 -0.0025
-0.000635 -0.000423741 -0.0025
-0.000635 -0.000635 -0.0025
0.0009525 -0.000635 -0.0025
0.0009525 -0.000423741 -0.0025
0.000635 -0.000635 -0.0025
-0.00047625 5.25088e-05 -0.0025
-0.000635 0.000211259 -0.0025
-0.0003175 0.0003175 -0.0025
0.00079375 5.25088e-05 -0.0025
0.000635 0.0003175 -0.0025
0.0009525 0.0003175 -0.0025
0.00015875 0.00015875 -0.0025
0.0003175 0.0003175 -0.0025
0.0003175 -0.000106241 -0.0025
-0.0003175 -0.000106241 -0.0025
0.000635 -0.000423741 -0.0025
0.0003175 -0.000635 -0.0025
-0.0009525 -0.000635 -0.0025
0.0009525 0.000635 -0.0025
-0.0003175 -0.000635 -0.0025
-0.0003175 0.000635 -0.0025
-0.0009525 0.000635 -0.0025
0.000635 -0.000212482 -0.0025
0.0009525 -0.000106241 -0.0025
-0.00079375 0.00047625 -0.0025
-0.0009525 0.0003175 -0.0025
0.00079375 0.00047625 -0.0025
0.000635 0.000635 -0.0025
-0.00015875 0.00015875 -0.0025
-0.00047625 0.00047625 -0.0025
0.00047625 0.00047625 -0.0025
0.0003175 0.000635 -0.0025
0.00111125 0.00047625 -0.0025
0.00127 0.000635 -0.0025
0.00127 0.0003175 -0.0025
0.00047625 0.000105629 -0.0025
-0.0003175 0.000105629 -0.0025
0.00111125 0.00015875 -0.0025
0.00127 0 -0.0025
0.00015875 -0.000529371 -0.0025
0 -0.000635 -0.0025
0 -0.0003175 -0.0025
-0.00015875 -0.000529371 -0.0025
0.00015875 -0.000211871 -0.0025
-0.00015875 -0.000211871 -0.0025
-0.00015875 0.00047625 -0.0025
0.00015875 0.00047625 -0.0025
0 0.000635 -0.0025
-0.00079375 5.25088e-05 -0.0025
0.0009525 0.000105629 -0.0025
-0.00111125 0.00047625 -0.0025
0.00111125 -0.000211871 -0.0025
0.00127 -0.0003175 -0.0025
-0.00111125 -0.000211871 -0.0025
0.00111125 -0.000529371 -0.0025
0.00127 -0.000635 -0.0025
-0.00111125 -0.000529371 -0.0025
0.00047625 -0.000318112 -0.0025
-0.00127 -0.0003175 -0.0025
-0.00127 -0.000635 -0.0025
-0.00127 0.0003175 -0.0025
-0.00127 0.000635 -0.0025
-0.00111125 0.00015875 -0.0025
-0.000635 0.000635 -0.0025
-0.00047625 -0.000318112 -0.0025
0.00079375 -0.000318112 -0.0025
-0.0009525 0.00042643 0.0025
0.0003175 0.000424251 0.0025
-0.000635 -0.0003175 0.0025
-0.0003175 -0.0003175 0.0025
-0.0009525 0.00010893 0.0025
-0.0003175 0.00010893 0.0025
0.00127 0.000635 0.00218063
-0.00111125 -0.00015875 0.0025
-0.00127 -0.0003175 0.0025
-0.0009525 -0.0003175 0.0025
-0.00015875 -0.00015875 0.0025
0 -0.0003175 0.0025
0.00111125 -0.00015875 0.0025
0.00127 -0.0003175 0.0025
0.0009525 -0.0003175 0.0025
0.00015875 -0.00015875 0.0025
0.0003175 -0.0003175 0.0025
0.0003175 0.000635 0.0025
0.000635 0.000635 0.0025
-0.0009525 0.000635 0.0025
-0.000635 0.000635 0.0025
0.0003175 0.000106751 0.0025
0.0009525 0.000106751 0.0025
0.00127 0 0.0025
-0.0003175 0.00042643 0.0025
-0.0009525 -0.000635 0.0025
-0.00127 -0.000635 0.0025
0.0009525 -0.000635 0.0025
-0.0003175 0.000635 0.0025
-0.000635 -4.98196e-05 0.0025
0.00015875 0.000529626 0.0025
0 0.0003175 0.0025
0 0.000635 0.0025
-0.00015875 0.000530715 0.0025
0.00015875 -0.00047625 0.0025
0 -0.000635 0.0025
0.0003175 -0.000635 0.0025
-0.00015875 -0.00047625 0.0025
-0.0003175 -0.000635 0.0025
-0.00015875 0.000213215 0.0025
-0.00079375 -0.000104285 0.0025
-0.00047625 -0.000104285 0.0025
0.00079375 -0.000105375 0.0025
0.000635 -0.0003175 0.0025
0.000635 -5.1999e-05 0.0025
0.00047625 -0.000105375 0.0025
-0.00111125 0.000213215 0.0025
0.00111125 -0.00047625 0.0025
-0.00111125 -0.00047625 0.0025
-0.00111125 0.000530715 0.0025
-0.00127 0.0003175 0.0025
-0.00127 0.000635 0.0025
0.00015875 0.000212125 0.0025
0.00111125 0.000529626 0.0025
0.0009525 0.000635 0.0025
0.0009525 0.000424251 0.0025
0.00127 0.000635 0.0025
0.00127 0.0003175 0.0025
0.000635 0.000424251 0.0025
-0.000635 0.00042643 0.0025
0.00047625 0.000318876 0.0025
0.000635 0.000213502 0.0025
-0.00047625 0.000322146 0.0025
0.00047625 -0.00047625 0.0025
0.000635 -0.000635 0.0025
0.00127 -0.000635 0.0025
-0.00047625 -0.00047625 0.0025
-0.000635 -0.000635 0.0025
0.00079375 -0.00047625 0.0025
-0.00079375 -0.00047625 0.0025
0.00079375 0.000318876 0.0025
CELLS 941 4705
4 0 1 2 3
4 4 5 6 7
4 8 9 10 11
4 4 5 7 12
4 13 14 15 16
4 1 2 3 15
4 2 3 15 17
4 13 14 18 19
4 13 18 19 20
4 21 22 23 24
4 2 3 17 25
4 8 11 26 27
4 8 10 11 26
4 10 11 26 28
4 10 26 28 29
4 22 30 31 32
4 5 22 30 32
4 30 33 34 35
4 16 36 37 38
4 36 37 38 39
4 1 13 15 40
4 9 41 42 43
4 7 9 10 41
4 42 43 44 45
4 41 42 43 44
4 42 44 45 46
4 6 47 48 49
4 5 33 47 50
4 6 47 49 51
4 7 41 52 53
4 3 37 39 54
4 3 17 25 54
4 36 37 39 54
4 36 39 54 55
4 17 25 54 56
4 36 54 55 56
4 17 36 54 56
4 28 41 43 57
4 41 43 44 57
4 44 45 57 58
4 43 44 45 57
4 41 42 44 52
4 4 6 7 59
4 4 7 12 59
[...]
POINT_DATA 301
SCALARS 1e+11_E_norm_0_[V/m] float 1
LOOKUP_TABLE jet
14714.3
7113.66
21849
36220.2
25905.5
6566.62
27907.9
21961.7
29554.6
25135.1
34989.7
162.975
26797.9
13657.1
14706.6
19608
39256.6
6533.92
28319.3
16200.6
49.7506
15552
14517.2
36474
25.4804
1263.71
74.9333
13.3278
84.8711
192.064
19946.8
26.3155
30228.4
19923
295.436
33173.6
25206.4
47095.1
31966
33751.6
24549.5
5308.8
18032.9
82.8259
18533.1
260.166
33576.8
18357.1
30874
34872.6
29.7977
149.809
22891
2344.46
25574.9
17404.1
108.014
46.0616
102.362
46261.9
44.8334
95.335
91.8996
24942.7
11201.6
46.8939
91.808
25641.8
33448.3
47568.4
45468.9
32573.9
47517.4
10828.9
16483.6
154.603
404.722
38598.1
3059.52
357.647
41103.1
27228.4
29792.6
44248.2
41961.5
34134.8
33294.8
8483.01
14445.3
24.6253
24438.6
32310.9
27638.7
30464.7
38966.8
23642.8
40564.2
35102.4
22308.6
23720.8
43015.8
48115.7
46604.1
46898.8
22244.5
37405.6
32205.5
45.3581
260.383
19684.5
77.8443
245.382
15098.7
39842.9
33798.3
46666.9
33924.7
18563
25.3179
33.0821
35.4164
68.808
24033.8
47120.9
86.5707
31754.9
24877.5
28.1021
252.025
16996
84.1245
20415.1
16221.6
33.9565
26.2007
21.5412
11.4403
13.7171
40666.5
28.1634
70.7366
3.84876
13776.8
63.4482
35.1836
24.1876
172.028
11429
38332.9
38911.6
15767.8
11977.8
41743.5
42705.9
20000.2
5030.88
21861.3
12104.5
20611.8
20565.3
8531.41
8539.59
15784.7
22319
15761.3
15786.5
8543.04
8531.71
15784.7
18550.5
15749.3
20623.1
12385.3
15784.2
8535.69
21875.7
20607.7
20602.2
20614.1
15759.1
20622.6
8526
8542.35
20554.5
20597.9
8517.99
15771.5
8543.4
12393
8542.33
12365.4
15784.2
21879.4
18552.1
18531.8
20623.2
4354.87
1.41746
0.802302
18560.3
20614.9
4354.73
1.92602
21867
22296.8
22322.1
21864.7
21893.2
21893.2
21880.2
21893.2
22322.2
12396.4
8484.48
4362.5
4354.48
0.88551
4355.93
4386.23
1.35356
4371.31
18560.2
0.619139
1.25118
22.9603
1.49413
4350.85
15784.2
18541.4
12401.5
8538.16
20610.1
15770.2
20615.5
8541.79
20590.4
45.0982
4352.39
1.00254
8541.89
21824.7
22294.6
4329.1
4.75775
8542.35
21849.2
20602.9
20622.5
15784.7
8543.05
15784.8
20623.3
8542.72
59.4083
20605.5
8580.93
1.07767
8526.21
20622.5
15784.2
21823.5
22322.2
22307.2
21824.7
21893.3
22322.2
20623.2
21884.8
20622.9
21893.3
12401
18560
12398.2
15762.2
15773.6
18555.8
4353.78
4355.36
4354.85
4376.2
0.616578
1.24578
21889.9
4354.83
8543.07
8518.16
1.36002
37.6991
15778.1
15783.7
18541.5
15780.4
18543.8
18540.1
15784.2
1.41746
18560.6
15784.2
12389.9
12384
12401.5
VECTORS 1e+11_E_abs_0_[V/m] float
37.8311 14714.2 47.4935
1.99263 7113.57 35.6415
16.3088 21848.1 197.015
4.09808 36219.8 164.143
4.55964 25905.5 8.59346
27.8281 6566.44 40.9728
2.57677 27907.8 79.7646
14.6192 21961.7 27.0631
89.0891 29554.4 60.5672
41.5664 25134.5 173.712
5.22226 34989.7 46.4392
110.876 110.415 45.5614
69.8676 26797.6 95.1601
40.0888 13656.4 136.482
23.489 14705.4 184.386
11.6409 19608 21.5777
17.7529 39256.5 42.1617
40.5117 6533.78 15.5671
41.3967 28319.2 15.9897
7.61558 16200.6 1.98608
35.8297 34.3507 3.37398
49.7634 15551.7 77.0706
16.698 14517.1 5.4084
67.9023 36473.9 14.6052
20.6554 14.6301 2.92603
9.19075 1262.74 48.7636
49.1627 55.6749 9.91636
9.18964 9.32954 2.47826
67.1559 39.5103 33.647
129.228 123.193 70.7977
22.9053 19946.8 13.0737
2.9847 23.7378 10.9596
13.0405 30228.4 4.30087
18.7774 19923 34.1687
161.313 246.004 27.2522
79.1086 33173.5 34.3826
25.9484 25206.3 13.9851
4.33271 47095.1 14.1608
4.34615 31966 10.4246
8.27977 33751.6 3.45914
3.50067 24549.5 17.1629
13.7461 5308.72 25.1448
38.2386 18032.7 61.2327
1.09269 18.0621 80.8251
8.71418 18533.1 25.033
179.196 187.154 23.4269
70.3901 33576.8 8.28385
26.0597 18357 70.3905
6.69866 30874 48.75
79.8538 34872.5 44.5271
22.3518 18.8237 5.8284
104.702 105.379 19.3769
26.2608 22890.9 40.4933
37.9307 2342.2 95.8091
25.6958 25574.9 13.1512
24.663 17404.1 12.3476
21.2012 83.9151 64.6195
27.2643 34.2288 14.3779
9.5762 101.911 0.732653
26.4568 46261.9 19.4769
32.2889 31.0723 1.4045
69.0191 63.0001 18.871
67.2641 60.5298 16.0383
10.0602 24942.7 27.373
0.568861 11201.4 71.3825
32.943 31.5418 10.9048
56.0819 69.8963 19.9504
73.4185 25641.6 89.4519
65.3099 33448.2 22.1221
29.5417 47568.3 39.8916
10.424 45468.9 27.0189
8.05645 32573.9 1.15712
0.974804 47517.4 26.0846
1.35452 10828.6 80.5818
5.20227 16483.6 17.7645
93.1524 123.12 8.14101
47.4381 397.001 62.7664
9.50093 38598.1 45.479
8.0696 3059.48 13.0691
219.978 281.805 10.3448
2.85773 41103.1 11.3859
14.5791 27228.4 28.2083
30.8168 29792.6 15.9241
16.1399 44248.2 2.17488
15.9954 41961.5 32.7616
64.6926 34134.7 16.0462
5.13124 33294.8 7.14497
29.3008 8482.96 0.408601
8.29768 14445.3 3.13199
7.57282 14.6685 18.2727
25.7209 24438.5 60.969
82.9044 32310.8 16.9216
0.223439 27638.7 9.84566
30.3529 30464.7 13.8868
20.5476 38966.8 5.89923
27.136 23642.7 48.2777
8.03673 40564.2 14.76
0.898706 35102.4 0.309589
3.95559 22308.5 15.2674
0 23720.8 0
3.96604 43015.7 57.7982
1.93849 48115.7 2.19892
22.9169 46604 62.2665
34.7367 46898.8 59.8339
14.4902 22244.5 51.1232
0.703219 37405.6 2.17507
0.652552 32205.5 14.2951
30.034 30.318 15.3669
164.027 192.292 62.5957
11.7453 19684.5 6.58896
5.91259 77.3002 7.03232
160.291 179.793 46.8328
0.34864 15098.7 0.137749
8.77307 39842.9 22.0371
47.7121 33798.3 21.1767
29.4551 46666.9 18.3555
93.0155 33924.6 23.4539
17.7422 18563 19.4409
9.49589 21.9918 8.19671
29.6347 14.3315 3.28915
25.2573 0.731517 24.8164
24.8593 63.9284 5.4511
10.2597 24033.8 3.08071
14.9656 47120.9 46.8289
12.873 85.3485 6.6642
3.15633 31754.9 1.90439
14.5401 24877.5 4.44314
16.6977 16.4242 15.5294
150.242 200.034 30.4934
3.31489 16996 12.6794
2.89066 79.8419 26.341
5.96919 20415.1 3.1688
0.432622 16221.6 5.54647
14.9915 29.7694 6.48727
19.6687 17.1887 2.04191
2.47139 21.3944 0.444726
7.49269 0.83671 8.60465
10.587 7.17038 4.9659
7.62563 40666.5 22.0592
7.85795 26.0249 7.35755
33.6197 57.9662 22.6561
2.81909 2.61136 0.215659
7.44005 13776.7 27.0486
36.6555 41.0937 31.5175
9.45511 33.4221 5.60793
6.60545 23.2682 0
29.4218 168.896 14.2218
15.8956 11429 20.5101
29.9299 38332.9 7.74353
11.4459 38911.6 15.6305
9.08866 15767.8 0.979942
10.7948 11977.6 56.335
18.0207 41743.5 7.17581
2.15121 42705.9 13.2584
16.9549 20000.2 28.5624
1.91835 5030.86 12.576
20.7171 21861.3 1.5711
15.5349 12104.5 23.2758
10.3224 20611.8 4.9128
4.95725 20565.3 20.3253
26.4424 8531.37 6.99528
0.154216 8539.58 3.44696
0.930477 15784.7 6.75518
8.5822 22318.9 29.6148
5.38425 15761.3 8.44626
3.9726 15786.5 2.04863
0.365137 8543.04 0.13205
1.10885 8531.7 13.5981
2.49945 15784.7 0.0172518
2.08155 18550.4 18.5945
15.8058 15749.2 25.9757
0.527851 20623.1 0.888975
15.0576 12385.3 9.44557
0.392917 15784.2 9.60574
11.0559 8535.66 19.042
17.5038 21875.6 57.0884
15.559 20607.6 70.4629
10.54 20602.2 24.2281
10.2777 20614.1 25.7884
0.590459 15759.1 5.24557
0.117518 20622.6 0.0733653
3.77871 8525.98 17.0351
0.740797 8542.35 0.0143966
1.4907 20554.4 55.2126
1.76182 20597.9 32.8613
0.271906 8517.94 30.1035
8.1084 15771.4 33.9564
1.44637 8543.32 37.4169
10.4176 12392.9 40.4384
0.480481 8542.33 0.507667
15.1058 12365.3 34.8254
0.330575 15784.2 0.0188769
2.31608 21879.4 10.6077
11.174 18552.1 4.59261
25.8514 18531.7 32.186
0.306849 20623.2 0.177326
0.000119944 4354.84 17.4762
1.00229 1.00229 0
0.0143836 0.801832 0.0233989
0.346472 18560.3 1.01138
2.67074 20614.9 4.08263
0.31012 4354.72 5.34587
1.7246 0.857486 0
17.5614 21867 12.9409
2.0874 22296.8 20.3109
0.00039121 22322.1 1.45622
1.4043 21864.7 5.69398
0.150537 21893.2 7.97944
0.151345 21893.2 10.2686
13.0874 21880.2 10.9563
0.000570622 21893.2 17.311
3.15005e-07 22322.2 1.58375e-08
4.51399 12396.4 24.3977
18.2578 8484.41 28.8457
45.6454 4362.13 34.075
1.10906 4354.48 7.81806
0.789697 0.343433 0.2063
2.95933 4355.93 2.8692
12.9009 4385.99 44.7044
0.749819 1.1269 0
46.7734 4371.03 15.5618
0.12609 18560.2 8.27762
0.401569 0.457586 0.11265
1.00025 0.751638 0
15.6644 1.13967 16.7482
1.33639 0.668195 0
3.4505 4350.83 14.1851
0.33057 15784.2 0.00580638
1.54631 18541.4 16.2646
0.193175 12401.5 16.5605
25.257 8538.09 20.5465
7.30672 20610.1 2.42598
6.01692 15770.2 25.8731
2.7757 20615.5 14.7631
1.58623 8541.79 1.93504
1.88578 20590.4 14.8683
29.7564 33.7681 2.84889
2.71561 4352.3 27.3156
0.0222857 1.00229 0
8.40361 8541.86 21.5986
13.3731 21824.7 29.5326
16.5006 22294.6 37.1011
19.938 4329.06 0.968533
2.96427 0.937393 3.60148
0.264653 8542.35 0.45207
16.7122 21849.2 4.81462
9.15516 20602.9 52.5507
0.11724 20622.5 0.0690482
2.49223 15784.7 0.0148745
0.360867 8543.05 0.141349
2.52342 15784.8 0.00548288
0.367107 20623.3 1.94595
0.152525 8542.72 1.09641
33.0526 13.6534 47.439
5.88686 20605.5 11.9801
6.13528 8580.82 42.254
0.668196 0.668196 0.518076
0.580813 8526.19 19.7198
0.11606 20622.5 0.0727175
1.50187 15784.2 2.04826
0.637462 21823.5 16.6674
0.000511975 22322.2 2.53158
0.171555 22307.2 14.4429
0.431512 21824.7 16.6135
0.000556848 21893.3 16.2688
2.84678e-07 22322.2 3.32215e-08
0.30685 20623.2 0.160743
8.5017 21884.8 31.231
0.30685 20622.9 0.140707
0.154323 21893.3 6.47609
1.36832 12401 3.61011
0.453951 18560 0.137147
5.72634 12398.2 8.65531
0.503428 15762.1 19.3587
8.64516 15773.6 6.09426
2.65177 18555.8 4.31425
0.86651 4353.74 20.6138
0.16017 4355 55.6834
0.00238197 4354.84 9.78932
14.6325 4376.17 6.7446
0.413741 0.45715 0
0.991303 0.754517 0
4.6063 21889.9 2.53563
0.10591 4354.83 3.74532
0.364214 8543.07 0.362083
25.9989 8518.06 31.4186
0.752132 1.13311 0
21.5813 8.75031 29.6462
2.06988 15778.1 20.9825
0.240195 15783.6 24.3669
2.08098 18541.5 0.773089
7.45393 15780.4 16.9591
10.9501 18543.8 12.5869
15.6748 18540 42.071
0.330575 15784.2 0.00420947
1.0023 1.0023 0
0.00883226 18560.6 13.1054
0.330575 15784.2 0.0524239
11.3632 12389.8 48.6693
3.37071 12383.9 36.6175
0.187696 12401.5 4.79727
VECTORS 1e+11_E_real_0_[V/m] float
-17.5527 -6827 22.0359
-0.924527 -3300.5 -16.5368
7.56694 10137 91.4101
1.90138 -16805.1 76.1585
-2.11553 12019.5 3.98716
12.9116 -3046.7 -19.0104
1.19556 12948.5 -37.0088
6.78292 10189.6 12.5567
41.3353 13712.6 -28.1017
19.2858 11661.8 80.5984
-2.42298 16234.4 -21.5467
51.4436 -51.23 -21.1394
-32.4168 12433.4 44.1521
18.6002 -6336.19 -63.3243
10.8983 6823.01 -85.5508
-5.4011 -9097.62 -10.0116
-8.23686 -18214.1 -19.5622
-18.7965 3031.56 -7.22274
-19.2071 13139.5 -7.41882
-3.53342 7516.73 0.921491
-16.6242 -15.9379 1.56545
23.0891 -7215.66 35.7589
-7.74745 -6735.62 -2.50933
31.505 -16923 -6.77655
9.58365 6.78803 1.35761
-4.26436 585.912 22.6252
-22.8104 -25.8319 -4.60102
-4.26373 4.32863 -1.14984
31.1587 -18.3318 15.6114
-59.959 -57.1585 -32.8485
10.6275 -9254.83 -6.06591
1.38482 11.0138 5.08499
-6.0505 -14025.3 1.9955
-8.71231 -9243.81 -15.8534
-74.8453 114.14 -12.6444
-36.7045 -15391.7 15.9528
-12.0394 -11695.1 -6.48882
2.01028 -21851 6.57028
-2.01653 -14831.5 4.83682
-3.84157 -15660 -1.60497
1.62422 -11390.4 -7.96319
6.37782 2463.1 11.6666
-17.7418 -8366.8 28.4105
0.50683 8.38053 37.5009
4.04316 -8598.94 -11.6147
-83.1428 86.8348 10.8695
-32.6593 -15578.8 -3.84357
12.091 8517.17 -32.6595
3.10801 14324.8 -22.6189
37.0503 16180 20.6594
-10.3708 8.73383 -2.70426
48.5791 -48.8933 8.99039
-12.1844 -10620.9 -18.7879
-17.5988 1086.69 -44.4531
11.9222 -11866.1 6.10184
-11.443 -8075.07 -5.72902
-9.83677 38.9345 -29.9819
12.6499 15.8814 6.67101
-4.44315 47.2842 0.339936
-12.2753 21464.4 -9.03678
-14.9812 -14.4167 -0.651673
32.0233 29.2306 -8.7557
-31.2089 -28.0843 7.44138
-4.66769 -11572.8 12.7004
-0.263896 -5197.13 -33.1198
-15.2848 -14.6347 5.05956
26.0207 32.4302 9.25653
34.0644 -11897.1 -41.5035
30.3022 -15519.2 10.2642
-13.7066 -22070.6 18.5088
4.83648 -21096.5 -12.536
-3.738 -15113.5 -0.536884
0.452285 22046.9 -12.1026
0.628444 -5024.24 -37.388
2.41378 -7648.02 -8.24232
43.2205 57.1247 3.77726
22.0102 -184.246 29.1221
-4.40821 -17908.6 21.1011
3.74408 1419.55 6.06384
-102.064 130.751 4.79966
-1.32591 -19070.8 5.28278
-6.76442 12633.4 13.0879
-14.2982 13823 -7.38844
-7.48855 -20530.2 -1.00907
-7.42149 -19469.1 15.2006
30.0159 -15837.7 7.44498
-2.38077 -15448 3.31509
-13.5949 3935.85 -0.1896
3.84992 6702.3 -1.45316
3.51356 -6.80589 -8.47811
11.9339 -11338.9 28.2881
38.4657 -14991.4 -7.85119
-0.103666 12823.7 -4.56816
-14.083 14134.9 6.44315
9.53358 18079.7 2.73711
12.5905 10969.6 22.3997
3.72887 -18820.9 6.84831
0.41699 -16286.7 0.143648
1.8353 -10350.6 -7.08372
0 -11005.9 0
-1.84017 19958.3 -26.8171
-0.899408 22324.5 -1.02022
-10.6329 -21623.2 -28.8903
16.117 -21759.9 -27.7614
6.72307 -10320.9 23.7198
0.326278 -17355.3 -1.00918
-0.302769 14942.5 6.6326
-13.9351 14.0669 7.1299
-76.1048 89.2188 29.0429
5.44955 -9133.17 -3.05712
-2.74331 35.8655 3.26283
74.3715 83.4198 -21.7293
-0.161777 -7005.45 -0.0639048
4.07052 -18486.2 -10.2247
-22.1373 -15681.6 -9.82545
-13.6664 -21652.3 8.51648
-43.157 -15740.2 10.882
8.23197 -8612.79 9.02012
4.40584 10.2036 -3.80308
-13.7498 6.64949 1.52609
-11.7188 0.339407 -11.5142
-11.5341 29.6612 -2.52918
4.76025 -11151.2 -1.42937
-6.94369 21863 -21.7276
5.97278 39.5996 -3.09204
1.46448 -14733.5 0.883591
-6.74624 -11542.6 2.06151
7.74741 -7.62053 7.20528
69.709 92.8113 -14.1482
1.53802 -7885.71 -5.88292
1.3412 -37.0448 12.2216
-2.76955 -9472.11 -1.47024
-0.200729 -7526.42 -2.57343
6.9557 -13.8123 3.00994
-9.1258 -7.97517 -0.9474
1.14666 9.92646 -0.206338
3.47642 0.388212 -3.99235
-4.91217 3.32691 -2.30403
3.53811 -18868.3 -10.235
3.6459 12.075 3.41374
15.5987 -26.8949 -10.5119
-1.30798 -1.2116 -0.10006
3.45202 6392.11 12.5499
17.0073 -19.0665 -14.6234
4.38694 -15.5071 2.60194
-3.06477 10.7959 0
13.651 78.3636 -6.59857
7.37521 5302.83 9.51621
-13.8867 -17785.6 3.59279
5.31062 -18054.1 -7.25216
-4.21692 -7315.87 -0.454685
5.00853 5557.36 26.1382
-8.36117 19368 3.32936
-0.998099 19814.5 6.15156
7.86668 9279.63 13.2523
0.890078 2334.18 5.83495
-9.61228 10143.1 0.72895
7.20784 5616.19 10.7994
4.78933 -9563.42 2.27947
-2.30002 -9541.83 -9.43041
12.2687 -3958.37 -3.24568
0.071553 -3962.18 1.5993
0.431716 -7323.77 3.13426
3.98193 -10355.5 13.7405
-2.49814 -7312.92 -3.91885
1.84323 -7324.61 -0.95058
-0.169416 -3963.78 0.0612683
0.514457 -3958.52 -6.30919
-1.15969 -7323.76 0.00800447
0.965792 -8607 8.62739
7.33353 -7307.3 12.0521
-0.244911 -9568.65 -0.412463
-6.98636 -5746.52 -4.38251
0.182305 -7323.54 -4.45683
-5.12967 -3960.36 8.83503
-8.12134 -10149.8 26.4876
-7.219 -9561.46 32.6931
4.89033 -9558.98 -11.2412
-4.76861 -9564.48 -11.9652
0.27396 -7311.89 -2.4338
-0.0545257 -9568.46 -0.0340399
1.75323 -3955.87 7.90388
0.343714 -3963.46 -0.0066797
0.691651 -9536.8 25.6173
-0.817444 -9556.98 -15.2469
-0.12616 -3952.14 -13.9673
-3.76211 -7317.6 15.7549
-0.671089 -3963.92 -17.3606
4.83353 -5750.04 18.7625
-0.222933 -3963.46 -0.235543
7.00872 -5737.23 -16.1582
0.153379 -7323.52 -0.00875846
1.0746 -10151.6 -4.92172
-5.18447 -8607.75 -2.1309
-11.9944 -8598.31 14.9335
0.142371 -9568.7 0.0822753
-5.56514e-05 -2020.55 -8.10856
0.465042 0.465042 0
-0.00667368 0.372032 0.0108566
0.160755 -8611.58 0.469263
-1.23916 -9564.87 1.89424
0.143889 -2020.5 2.48037
0.800178 0.397855 0
-8.14805 -10145.8 6.00428
0.968501 -10345.2 9.42377
-0.000181513 -10357 0.675649
0.65156 -10144.7 -2.64187
0.069846 -10158 -3.70227
-0.0702206 -10158 -4.76436
6.07224 -10151.9 5.08347
0.000264756 -10158 8.03186
-1.46156e-07 -10357 7.34829e-09
-2.09438 -5751.67 -11.32
8.47121 -3936.58 -13.3837
-21.1784 -2023.93 -15.81
0.514578 -2020.38 3.62739
0.366402 0.159345 -0.0957189
-1.37306 -2021.06 1.33125
5.98575 -2035 -20.7418
-0.3479 0.522857 0
21.7018 -2028.06 7.22031
-0.0585029 -8611.52 3.84061
-0.186319 0.21231 -0.0522673
0.464095 0.348743 0
-7.26794 0.528781 -7.7708
-0.620056 0.310028 0
1.60095 -2018.69 6.58156
-0.153377 -7323.52 0.00269403
-0.717448 -8602.81 -7.54631
-0.0896288 -5754.02 7.68367
11.7187 -3961.46 9.5331
3.39015 -9562.54 1.12555
-2.79171 -7316.98 12.0045
-1.28787 -9565.07 6.84974
-0.735969 -3963.17 0.897816
0.874956 -9553.41 6.89857
13.8062 15.6676 -1.32181
1.25998 -2019.36 -12.6737
-0.01034 0.465039 0
3.89907 -3963.2 -10.0213
6.20485 -10126.1 13.7025
7.65595 -10344.1 17.2141
-9.25072 -2008.57 -0.449389
-1.37535 0.434926 -1.671
0.122792 -3963.43 0.209749
-7.75409 -10137.5 2.23388
4.24779 -9559.21 24.3823
0.0543962 -9568.32 0.0320366
1.15633 -7323.72 0.00690139
-0.167433 -3963.76 0.0655822
-1.1708 -7323.77 -0.00254392
0.170328 -9568.71 0.902875
-0.0707679 -3963.6 0.508705
-15.3356 6.33483 -22.0106
-2.73137 -9560.43 5.55847
2.84661 -3981.28 19.6047
0.310026 0.310026 0.240374
-0.269482 -3955.93 -9.14955
-0.0538488 -9568.32 0.0337391
0.696822 -7323.49 -0.95036
-0.295745 -10125.5 -7.73336
0.000237543 -10356.9 -1.1746
-0.0795975 -10350 6.7012
-0.200233 -10126.1 -7.70833
-0.000258363 -10157.9 7.54838
-1.32084e-07 -10356.9 -1.5414e-08
-0.142371 -9568.65 0.0745807
-3.94458 -10154 14.4905
0.142371 -9568.5 -0.0652843
0.0716019 -10157.9 -3.00475
-0.634869 -5753.73 1.67499
-0.210622 -8611.38 0.0636338
2.65688 -5752.45 4.01586
0.233578 -7313.23 8.98203
-4.01114 -7318.55 -2.82762
-1.23036 -8609.44 -2.0017
-0.402042 -2020.02 9.56432
0.0743098 -2020.61 -25.8357
0.00110517 -2020.54 4.542
-6.78913 -2030.43 -3.12934
0.191965 0.212106 0
-0.459939 0.350077 0
-2.13722 -10156.4 -1.17647
0.0491397 -2020.53 1.73774
0.168986 -3963.77 0.167997
-12.0629 -3952.16 -14.5775
0.34897 0.525734 0
10.0132 4.05993 13.7551
-0.960379 -7320.64 -9.73539
0.111445 -7323.21 -11.3057
0.965511 -8602.76 -0.358721
3.45844 -7321.69 7.86863
-5.08059 -8603.83 5.84
7.27271 -8602.1 19.52
-0.153378 -7323.48 -0.00195309
-0.465039 0.465039 0
-0.00409794 -8611.63 6.08059
0.153378 -7323.48 0.0243234
5.27224 -5748.56 22.5814
1.56391 -5745.81 16.9896
0.087086 -5753.99 -2.22581
VECTORS 1e+11_E_imag_0_[V/m] float
33.5126 13034.5 -42.072
1.76517 6301.56 31.573
-14.4471 -19354 -174.525
-3.63029 32085.3 -145.405
4.03916 -22948.3 -7.6125
-24.6514 5816.85 36.2957
-2.28262 -24722.1 70.6593
-12.9504 -19454.7 -23.9738
-78.9193 -26180.7 53.6533
-36.8215 -22265.3 -153.882
4.62613 -30995.5 41.1381
-98.2188 97.8111 40.3605
61.8921 -23738.6 -84.2973
-35.5126 12097.5 120.902
-20.8077 -13026.7 163.338
10.3121 17369.7 19.1146
15.7263 34775.3 37.3487
35.8872 -5787.91 13.7901
36.6711 -25086.5 14.1645
6.74626 -14351.3 -1.75936
31.7396 30.4294 -2.98883
-44.0828 13776.4 -68.2728
14.7919 12860 4.79104
-60.1511 32310.3 12.9379
-18.2976 -12.96 -2.59201
8.14156 -1118.58 -43.1971
43.5506 49.3194 8.78435
8.14065 -8.26458 2.19536
-59.4899 35.0001 -29.8061
114.477 109.13 62.7159
-20.2906 17669.8 11.5814
-2.64399 -21.0281 -9.70852
11.5519 26777.7 -3.80992
16.6339 17648.7 30.2683
142.899 -217.922 24.1413
70.0782 29386.7 -30.4577
22.9863 22329 12.3887
-3.83811 41719.1 -12.5443
3.85001 28317 -9.23463
7.33464 29898.8 3.06426
-3.10107 21747.1 15.2037
-12.1769 -4702.73 -22.2745
33.8735 15974.2 -54.2428
-0.968036 -16.0002 -71.5987
-7.71944 16417.5 22.1754
158.74 -165.79 -20.7527
62.3549 29743.9 7.3382
-23.0849 -16261.5 62.3552
-5.93399 -27349.7 43.185
-70.7383 -30891.7 -39.4442
19.8002 -16.6749 5.16306
-92.7499 93.3497 -17.165
23.2631 20277.9 35.8708
33.6009 -2074.85 84.8723
-22.7625 22655.5 -11.6499
21.8477 15417.4 10.9381
18.7811 -74.3361 57.243
-24.152 -30.3214 -12.7367
8.48304 -90.2774 -0.649018
23.4367 -40981 17.2536
28.6031 27.5253 1.24416
-61.1403 -55.8085 16.7168
59.5858 53.6202 -14.2075
8.91176 22095.4 -24.2483
0.503946 9922.71 63.234
29.1824 27.9412 -9.65995
-49.6801 -61.9175 -17.6731
-65.0376 22714.5 79.2408
-57.8547 29630 -19.5968
26.1694 42138.3 -35.3378
-9.23409 40278.5 23.9347
7.13679 28855.5 1.02503
-0.863529 -42093.2 23.107
-1.19991 9592.43 71.3832
-4.6084 14602 15.7366
-82.5188 -109.065 -7.21168
-42.023 351.657 -55.6015
8.41637 34192 -40.2875
-7.14845 -2710.23 -11.5772
194.867 -249.636 -9.16393
2.53152 36411.1 -10.0862
12.9149 -24120.2 -24.9883
27.299 -26391.7 14.1063
14.2975 39197.2 1.92662
14.1695 37171.5 -29.0218
-57.3077 30238.1 -14.2145
4.5455 29494.1 -6.32936
25.9561 -7514.63 0.361949
-7.35048 -12796.3 2.77447
-6.70838 12.994 16.1869
-22.7848 21648.8 -54.0092
-73.4406 28622.4 14.99
0.197935 -24483.6 8.72176
26.8881 -26987.1 -12.3016
-18.2021 -34518.7 -5.22582
-24.0383 -20943.9 -42.7667
-7.11932 35933.7 -13.0752
-0.796111 31095.4 -0.274245
-3.50404 19762 13.5246
0 21013 0
3.51329 -38105.4 51.2004