# vtk DataFile Version 2.0
Solution data
ASCII
DATASET UNSTRUCTURED_GRID
POINTS 301 float 
-0.000611422 0.000635 -0.00118561
-0.00065011 0.000227844 -0.00105485
-3.50918e-06 0.000635 -0.000650796
0.000100974 0.000635 -0.00143547
-0.000695798 -0.000118122 0.000355892
-0.000642766 2.5254e-05 0.00104394
-0.000582192 0.000248008 0.000408113
3.1431e-05 5.93208e-06 0.000648048
0.000630237 -0.000635 -0.000314534
0.000502302 -0.000635 0.000515794
0.000612815 3.11036e-05 1.21554e-05
0.00127 -0.000635 7.89525e-05
-0.000530634 -0.000635 0.00046866
-0.000627273 -0.000635 -0.00116971
8.21896e-06 -0.000635 -0.00074444
-0.000167186 -3.59938e-05 -0.00118212
1.14088e-05 -0.000635 -0.00149239
0.000455156 4.21862e-05 -0.000832756
-0.000609408 -0.000635 -0.00037412
-0.000713166 -0.00019508 -0.000599353
-0.00127 -0.000635 -0.000834225
-0.000630332 -0.000635 0.00120757
-0.000946805 -0.000193316 0.00145282
-0.000553413 -0.000635 0.00198553
-0.00127 -0.000635 0.0016663
0.000680811 0.000635 -0.000906468
0.00127 0 -0.000368336
0.00127 -0.000635 -0.000755304
0.00127 0 0.000423542
0.00127 0.000635 -5.88352e-05
-0.000908132 0.000256472 0.00168546
-0.00127 0 0.00168675
-0.000717254 -1.22866e-05 0.00179023
-0.000637381 0.000635 0.00129888
-0.00127 0.000635 0.00168942
-0.000633903 0.000635 0.00199501
0.000715993 -0.000170175 -0.00150472
6.05947e-05 2.75108e-05 -0.00174125
0.000625835 -0.00022303 -0.00208252
0.000551001 0.000192766 -0.00211964
-0.000792255 -0.000108713 -0.00161108
0.000823981 -8.76488e-05 0.000803297
0.000602022 -0.000635 0.00124442
0.00127 -0.000635 0.000894476
0.000871939 -0.000247509 0.00149052
0.00127 -0.000635 0.00170111
0.000642442 -0.000635 0.00191557
-0.000663829 0.000635 0.000579273
-2.09563e-06 0.000635 0.000515939
-0.00058087 0.000635 -0.000164566
-0.00127 0.000635 0.000876353
-0.00127 0.000635 5.20454e-05
0.000374371 -1.91855e-05 0.00125903
0.000649848 0.000635 0.000886959
0.000571343 0.000186923 -0.00138556
0.000945372 0.000174689 -0.00162546
0.00127 0 -0.00105803
0.00127 0 0.00111469
0.00127 0 0.0018165
-9.9723e-05 -0.000191161 0.000149919
0.00127 0.000635 0.000584047
0.00127 0.000635 0.00122335
-0.00127 -9.8787e-07 0.000862364
0.000265482 -0.000135598 -0.00127044
0.000639984 -0.000635 -0.00112713
0.00127 0.000635 -0.000703966
0.00127 0.000635 -0.00133913
0.000645053 0.000635 0.00144364
0.00063825 0.000635 0.00195539
8.47695e-05 1.19818e-05 0.0019267
6.65702e-06 0.000635 0.0016583
0.000660092 -9.67737e-06 0.00176506
-9.78561e-05 0.00030236 6.43061e-05
3.69845e-07 0.000635 0.00106267
0.000928454 0.0002991 0.00151256
0.00127 0.000635 0.00186126
-0.000106271 -0.000635 0.000934045
9.69166e-06 -0.000635 0.00147881
0.000896664 -0.000277757 -0.000843967
0.00127 -0.000635 -0.00162207
-7.93299e-06 0.000327175 0.00218004
0.000672326 0.000635 -0.000339286
0.000664104 0.000635 0.000256736
-5.44723e-05 -0.000303963 -0.00209421
-0.000334864 -0.000241177 -0.00167313
-0.00063033 -0.000635 -0.00189791
-0.000476393 -7.78516e-05 -0.00220411
-0.000299108 0.000335761 0.00081682
-0.000886496 0.000181815 -0.000504759
-0.00127 -1.49815e-05 -0.000790245
0.00069253 0.000460125 -0.00145189
0.000665774 0.000635 -0.00196109
-0.000469967 0.00024725 -0.000480562
-0.000710037 0.000105092 -7.82635e-05
-0.000180229 -2.06522e-05 -0.000349907
0.000618475 0.000343193 0.000484287
-0.00036472 -0.000231783 0.00164389
0.000380032 3.58785e-05 0.0022188
0 0 0.0025
0.000711591 0.000635 -0.00145187
0.000214821 -0.00027665 -0.000229425
4.64507e-06 -0.000635 -9.05641e-06
5.78438e-05 -0.000635 0.00200433
2.54119e-05 0.000635 -0.00199456
0 0 -0.0025
-0.000357852 0.000277775 -0.00217316
-1.55329e-05 -0.000635 0.000494596
-0.00127 0.000217826 -0.00207536
-0.00127 0.000635 -0.00163975
-0.000882401 0.000228713 -0.00214245
-0.00127 0 -0.00165582
-0.00127 -0.000635 -0.00166728
-0.000953995 -0.000258983 -0.00221433
-0.000429067 0.000241445 -0.00168789
-0.000625708 0.000635 -0.00197097
8.54406e-06 -0.000635 -0.00200511
0.000639319 -0.000635 -0.00187426
0.0008845 0.000217412 0.00219547
-0.00127 -0.000213826 -0.00123336
-0.00127 -0.000214117 -0.00208006
-0.00127 0 -0.0025
-0.00127 0.000212005 -0.00121953
-0.000117003 1.23774e-05 0.00124133
0.00014581 0.000635 -6.28763e-05
-0.00127 -0.0003175 0.0020905
0.000544213 -0.000219953 0.00219154
-0.000661708 -0.000120279 0.00227805
-0.00127 0.000635 -0.000779709
0.00127 0.000635 -0.00193096
0.000916281 -0.000292303 0.00220307
-0.00127 0.000242116 -0.000367736
-0.000866766 0.0003007 -0.0015742
-0.000916236 7.0018e-05 0.00224156
-0.00127 -0.000236283 -0.00038939
-0.00127 -0.000635 -9.63562e-07
-0.00127 0.0003175 0.00209821
-0.00127 0 0.0025
-0.00127 -0.000225016 0.00126601
0.000411937 -0.000305856 0.0017069
-0.00127 0.000228201 0.00128041
-0.00127 -0.000231951 0.000437597
-0.00127 -0.000635 0.000832642
-0.00061359 0.000635 -0.000688578
-0.00127 0.000220804 0.000460316
-0.00127 -1.68789e-05 3.65592e-05
0.00127 0 -0.00152747
0.00127 0 -0.00197145
-0.000263854 -3.38532e-05 -0.000778845
-0.000351109 0.000266433 0.00156102
-0.000405837 4.53041e-05 0.00209142
-0.000635 0.000217861 0.0025
0.000901753 0.000212756 -0.000573015
-0.000381311 -0.000319215 -0.000137024
0.000191068 0.000199132 -0.00024874
0.000619849 -0.000244544 -0.000565083
-0.000909789 -0.000313097 0.000784055
-0.000883119 -0.000274781 -9.71726e-05
0.000980121 -0.000335397 0.000455192
-0.0003175 -0.000423741 -0.0025
0.0003175 -0.000423741 -0.0025
-0.0009525 -0.000106241 -0.0025
-0.0009525 -0.000423741 -0.0025
-0.000635 -0.000212482 -0.0025
0 0.0003175 -0.0025
-0.000635 -0.000423741 -0.0025
-0.000635 -0.000635 -0.0025
0.0009525 -0.000635 -0.0025
0.0009525 -0.000423741 -0.0025
0.000635 -0.000635 -0.0025
-0.00047625 5.25088e-05 -0.0025
-0.000635 0.000211259 -0.0025
-0.0003175 0.0003175 -0.0025
0.00079375 5.25088e-05 -0.0025
0.000635 0.0003175 -0.0025
0.0009525 0.0003175 -0.0025
0.00015875 0.00015875 -0.0025
0.0003175 0.0003175 -0.0025
0.0003175 -0.000106241 -0.0025
-0.0003175 -0.000106241 -0.0025
0.000635 -0.000423741 -0.0025
0.0003175 -0.000635 -0.0025
-0.0009525 -0.000635 -0.0025
0.0009525 0.000635 -0.0025
-0.0003175 -0.000635 -0.0025
-0.0003175 0.000635 -0.0025
-0.0009525 0.000635 -0.0025
0.000635 -0.000212482 -0.0025
0.0009525 -0.000106241 -0.0025
-0.00079375 0.00047625 -0.0025
-0.0009525 0.0003175 -0.0025
0.00079375 0.00047625 -0.0025
0.000635 0.000635 -0.0025
-0.00015875 0.00015875 -0.0025
-0.00047625 0.00047625 -0.0025
0.00047625 0.00047625 -0.0025
0.0003175 0.000635 -0.0025
0.00111125 0.00047625 -0.0025
0.00127 0.000635 -0.0025
0.00127 0.0003175 -0.0025
0.00047625 0.000105629 -0.0025
-0.0003175 0.000105629 -0.0025
0.00111125 0.00015875 -0.0025
0.00127 0 -0.0025
0.00015875 -0.000529371 -0.0025
0 -0.000635 -0.0025
0 -0.0003175 -0.0025
-0.00015875 -0.000529371 -0.0025
0.00015875 -0.000211871 -0.0025
-0.00015875 -0.000211871 -0.0025
-0.00015875 0.00047625 -0.0025
0.00015875 0.00047625 -0.0025
0 0.000635 -0.0025
-0.00079375 5.25088e-05 -0.0025
0.0009525 0.000105629 -0.0025
-0.00111125 0.00047625 -0.0025
0.00111125 -0.000211871 -0.0025
0.00127 -0.0003175 -0.0025
-0.00111125 -0.000211871 -0.0025
0.00111125 -0.000529371 -0.0025
0.00127 -0.000635 -0.0025
-0.00111125 -0.000529371 -0.0025
0.00047625 -0.000318112 -0.0025
-0.00127 -0.0003175 -0.0025
-0.00127 -0.000635 -0.0025
-0.00127 0.0003175 -0.0025
-0.00127 0.000635 -0.0025
-0.00111125 0.00015875 -0.0025
-0.000635 0.000635 -0.0025
-0.00047625 -0.000318112 -0.0025
0.00079375 -0.000318112 -0.0025
-0.0009525 0.00042643 0.0025
0.0003175 0.000424251 0.0025
-0.000635 -0.0003175 0.0025
-0.0003175 -0.0003175 0.0025
-0.0009525 0.00010893 0.0025
-0.0003175 0.00010893 0.0025
0.00127 0.000635 0.00218063
-0.00111125 -0.00015875 0.0025
-0.00127 -0.0003175 0.0025
-0.0009525 -0.0003175 0.0025
-0.00015875 -0.00015875 0.0025
0 -0.0003175 0.0025
0.00111125 -0.00015875 0.0025
0.00127 -0.0003175 0.0025
0.0009525 -0.0003175 0.0025
0.00015875 -0.00015875 0.0025
0.0003175 -0.0003175 0.0025
0.0003175 0.000635 0.0025
0.000635 0.000635 0.0025
-0.0009525 0.000635 0.0025
-0.000635 0.000635 0.0025
0.0003175 0.000106751 0.0025
0.0009525 0.000106751 0.0025
0.00127 0 0.0025
-0.0003175 0.00042643 0.0025
-0.0009525 -0.000635 0.0025
-0.00127 -0.000635 0.0025
0.0009525 -0.000635 0.0025
-0.0003175 0.000635 0.0025
-0.000635 -4.98196e-05 0.0025
0.00015875 0.000529626 0.0025
0 0.0003175 0.0025
0 0.000635 0.0025
-0.00015875 0.000530715 0.0025
0.00015875 -0.00047625 0.0025
0 -0.000635 0.0025
0.0003175 -0.000635 0.0025
-0.00015875 -0.00047625 0.0025
-0.0003175 -0.000635 0.0025
-0.00015875 0.000213215 0.0025
-0.00079375 -0.000104285 0.0025
-0.00047625 -0.000104285 0.0025
0.00079375 -0.000105375 0.0025
0.000635 -0.0003175 0.0025
0.000635 -5.1999e-05 0.0025
0.00047625 -0.000105375 0.0025
-0.00111125 0.000213215 0.0025
0.00111125 -0.00047625 0.0025
-0.00111125 -0.00047625 0.0025
-0.00111125 0.000530715 0.0025
-0.00127 0.0003175 0.0025
-0.00127 0.000635 0.0025
0.00015875 0.000212125 0.0025
0.00111125 0.000529626 0.0025
0.0009525 0.000635 0.0025
0.0009525 0.000424251 0.0025
0.00127 0.000635 0.0025
0.00127 0.0003175 0.0025
0.000635 0.000424251 0.0025
-0.000635 0.00042643 0.0025
0.00047625 0.000318876 0.0025
0.000635 0.000213502 0.0025
-0.00047625 0.000322146 0.0025
0.00047625 -0.00047625 0.0025
0.000635 -0.000635 0.0025
0.00127 -0.000635 0.0025
-0.00047625 -0.00047625 0.0025
-0.000635 -0.000635 0.0025
0.00079375 -0.00047625 0.0025
-0.00079375 -0.00047625 0.0025
0.00079375 0.000318876 0.0025
CELLS 941 4705
4 0 1 2 3
4 4 5 6 7
4 8 9 10 11
4 4 5 7 12
4 13 14 15 16
4 1 2 3 15
4 2 3 15 17
4 13 14 18 19
4 13 18 19 20
4 21 22 23 24
4 2 3 17 25
4 8 11 26 27
4 8 10 11 26
4 10 11 26 28
4 10 26 28 29
4 22 30 31 32
4 5 22 30 32
4 30 33 34 35
4 16 36 37 38
4 36 37 38 39
4 1 13 15 40
4 9 41 42 43
4 7 9 10 41
4 42 43 44 45
4 41 42 43 44
4 42 44 45 46
4 6 47 48 49
4 5 33 47 50
4 6 47 49 51
4 7 41 52 53
4 3 37 39 54
4 3 17 25 54
4 36 37 39 54
4 36 39 54 55
4 17 25 54 56
4 36 54 55 56
4 17 36 54 56
4 28 41 43 57
4 41 43 44 57
4 44 45 57 58
4 43 44 45 57
4 41 42 44 52
4 4 6 7 59
4 4 7 12 59
[...]
POINT_DATA 301
SCALARS 7.5e+10_E_norm_0_[V/m] float 1
LOOKUP_TABLE jet
12944.1
18871.9
42520.5
9697.17
33003.6
19729.3
37879.1
43661.5
35474
40520.9
39047.4
11325.6
38595.7
16020
39990.6
19033
6043.74
31529.8
34970.5
28493.9
6229.41
14394.6
3547.42
19549.8
314.006
19626.2
7093.61
4788.36
5621.57
11248.8
2377.1
803.973
7333.85
10861.7
1829.01
17837.2
2420.23
8153.57
20128.9
21260.5
693.539
20396.8
13854.2
7253.47
3076.83
1542.68
14380.8
27764.1
46637.2
39131.1
4021.47
10243.9
15964.1
23853.9
8097.63
1192.94
4362.15
2812.16
989.253
52750
8064.82
351.314
5670.46
14649.7
18572.1
5799.59
1268.09
5199.25
17610.6
17195.2
9676.18
6809.36
52984.6
26872.4
2285.48
2768.8
32726
7368.08
16420.7
728.072
30332.2
35649.7
33961.4
28133.1
3704.41
15557.2
25024.9
32377.4
21582.1
3206.73
3857.9
14602.6
39495.5
34593.6
48828.8
35623.9
2305.67
28563.7
41020.3
5204.82
50022.2
54443.9
26007.5
26223.5
38651.3
28218.1
49420.7
2429.37
1779.46
12880.1
530.94
1847.78
11821.5
4527.29
16374.4
25410.6
14080.5
14455.6
2598.76
1650.5
2623.98
2103.59
18095.6
51410.2
3867.21
23315.6
24183
6770.45
2302.59
12806
6486.25
731.673
13456.4
5817.76
6831.82
1803.59
2128.47
2256.72
5886.99
1808.97
6395.98
3665.07
29096.1
6886.31
4482.83
178.173
3584.76
36959.5
1618.64
22520.4
27925.1
20357.5
47108.8
50324.3
33583.2
16696.2
24558.4
17599
36846.8
35636.4
15065.6
17670
28660.6
41847.8
28921.7
28303.6
15610.9
15268.5
29411.6
33589.1
28113.3
38703
23327.7
29572.5
14868.6
39908.8
37861.1
36963.4
38627.2
27978.7
38868.1
14698.2
16001.4
36895.4
37237.4
15709.9
28933.1
15360.4
23161.2
16086.2
23059.9
29571.3
38811.9
33601.6
32586.3
38456.8
8171.37
2853.19
1662.1
34591.3
36185.2
9306.95
2140.7
39033.2
39107
41851.1
38644.5
41137.9
41113
39966.8
41138.7
41986.4
22944.6
17189.2
7707.27
9173.39
2201.45
7397.26
7172.06
2648.92
7961.35
35073.4
1603.62
2367.61
2767.78
3039.72
8982.68
29580.2
32428.8
22790.6
15292.6
37157.4
28865.1
37633.7
16285.6
37977.2
5173.53
9063.95
2036.71
16140.4
37688
40820
9548.26
2053.99
16242.3
38550.5
37537.4
39632.5
29789.6
15478.5
29764.2
38834.3
16049.8
2552.02
36785.8
13656.1
2207.46
15721.6
39625.6
29408.6
39369
42238.1
40075.9
39322.7
41558
42409.7
38849.3
41915.4
39479.8
41516.9
21966.5
35824.1
21823.2
28432.8
28692.7
34703
8105.8
8341.35
8400.27
7324.73
1600.86
2365.99
40896.3
8469.47
16057.6
16111.1
2730.87
1972.75
28270.2
30505.6
32817.7
30040.9
32886.7
33537.8
29895.9
2924.73
34776
29863
23115
23065.9
22757.1
VECTORS 7.5e+10_E_abs_0_[V/m] float
1100.46 12652.6 2500.14
257.746 18863.7 495.554
206.182 42340 3908.24
402.93 7763.52 5796.6
461.3 32999.1 286.769
163.807 19722.7 483.321
15.6041 37840.1 1717.21
515.986 43657.3 320.719
5234.22 35050.4 1573.52
2529.72 40373.7 2346.81
13.4869 39036.8 910.676
7997.47 8017.66 162.176
3879.05 38366.1 1620.22
1623.73 15382.9 4167.77
90.2243 39782.5 4074
602.317 19021.7 253.905
109.161 2388.52 5550.66
235.546 31526.9 357.617
3441.21 34783 1113.91
362.69 28491.4 86.572
4486.34 4301.15 422.465
1639.69 13983.7 2995.42
519.008 3508.73 60.2396
2520.53 19219.6 2539.48
254.546 180.293 36.0588
3075.6 19253.8 2240.35
2143.37 6746.08 464.401
3301.61 3351.87 890.375
1732.36 5266.13 932.088
7712.25 8171.61 530.383
831.554 2203.77 320.177
797.576 100.58 11.352
443.386 7298.19 570.271
1321.74 10525.4 2333.62
1120.92 1442.4 91.0205
1682.17 17543.4 2750.5
307.746 2328.98 581.949
71.9849 8149.56 245.45
296.921 20126.3 125.728
735.146 21246.7 209.864
147.733 559.014 382.982
229.963 20395.4 53.5506
800.849 13556.8 2740.59
5333.46 4888.34 520.701
335.843 3011.86 531.801
1016.9 1101.13 365.097
1638.89 14057.8 2549.13
3742.95 27466.9 1551.75
542.372 46621.1 1098.1
3851.98 38936.6 591.673
3016.57 2540.43 786.595
6669.33 7775.4 7.98145
968.116 15930.3 375.002
3627.08 23360.7 3182.9
565.26 8072.92 283.049
112.984 493.182 1080.33
1736.23 3912.38 840.947
1555.89 2329.62 245.644
327.982 926.454 112.835
193.345 52745.2 681.753
5494.87 5822.39 973.395
254.339 232.158 69.5405
713.352 5619.18 264.708
1132.9 14599.1 443.321
1857.39 18280.2 2702.88
4074.22 3900.92 1348.64
691.514 1055.46 126.001
484.146 3873.44 3434.29
1646.97 17382.5 2295.36
193.683 17193.7 116.332
248.983 9028.72 3471.11
15.4696 6716.22 1122.31
106.196 52982.8 423.251
671.811 26552.3 4080.67
437.195 2190.23 484.93
1733.76 2061.92 639.384
294.949 32481.7 3980.17
255.079 5192.13 5221.62
1280.19 16284.4 1679.33
318.206 545.978 361.582
269.935 30330.9 68.1395
2735.23 35511.9 1524.41
3449.46 33777.3 752.785
18.1921 28130.5 381.893
216.607 3696.56 105.579
1626.19 15277.7 2443.9
187.185 25024.1 80.2626
909.379 32363.1 311.195
2.81465 21566 832.432
1088.43 3015.13 86.2841
459.56 3792.83 535.413
1901.88 14379.7 1685.54
648.637 39489.9 154.159
227.159 34590.1 435.935
217.46 48826.9 382.01
808.32 35563.7 1906.51
1029.96 1791.72 1022.27
536.929 28557.9 214.586
94.1556 40986.6 1660.45
0 5204.82 0
177.752 50017.1 690.69
99.2776 54441.8 456.734
605.499 25699.7 3943.38
59.3821 26050.2 3009.54
431.217 38623.6 1398.8
237.614 28214.1 409.864
73.6552 49394.3 1613.52
1226.02 2095.63 83.9583
1179.05 1274.05 391.287
345.872 12875.2 81.5937
31.0122 529.686 19.1857
1305.2 1267.17 324.089
88.5141 11819 225.502
328.648 4494.34 435.077
1190.19 16185.3 2177.1
475.012 25388.2 955.892
1473.09 13837.2 2150.2
766.792 14430.2 383.723
389.067 2530.6 445.268
1421.13 836.532 68.8454
2012.98 1542.95 672.674
853.201 1921.19 78.6819
1043.63 18064.5 182.33
1391.76 51388.1 580.306
232.244 3841.95 375.19
467.374 23310.6 120.955
264.762 24179.4 322.072
4323.7 5198.65 344.314
1624.84 1630.84 46.8014
88.7671 12803 261.762
1264.31 6303.67 858.333
260.395 503.979 462.11
0.289793 13455.6 147.138
172.515 5793.34 503.823
5128.59 4481.95 532.427
427.855 1752.06 12.3269
889.677 1932.87 53.4518
1734.62 1383.72 411.337
1268.36 5681.32 877.842
794.085 1615.51 178.72
1669.28 6173.3 111.842
2684.54 2486.73 205.366
2071.27 28983.4 1501.3
4.69178 6471.98 2352.6
1458.56 4225.32 339.158
167.479 60.7968 0
330.149 3568.83 70.5445
562.806 36954 291.451
376.031 1462.22 583.516
1017.46 22496.4 215.33
139.026 27919.5 538.223
385.121 20264.6 1903.61
230.713 47107.5 263.159
88.7762 50320.1 641.975
1870.88 33496.4 1524.17
198.367 16689.9 411.606
1871.89 24484 382.399
141.236 17557.3 1202.38
691.4 36836.5 530.299
422.529 35633.8 85.4722
1238.52 15010.5 354.179
390.096 17601.9 1500.16
119.924 28653 648.484
866.103 41644.1 4031.46
1955.54 28853.9 306.366
2989.53 28088 1795.52
695.716 15593.4 251.602
781.101 15229.8 754.008
1765.08 29358.6 12.183
138.252 33586.8 374.104
299.902 28092.2 1047.3
320.662 38701.6 75.9908
100.787 23326.4 225.55
331.817 29486.5 2230.03
173.539 14839.5 914.007
1254.27 39698.5 3894.03
703.586 37824 1520.49
90.6757 36961.2 395.158
356.228 38622 520.226
207.784 27973.7 486.394
257.108 38867 160.51
645.656 14664.9 749.699
1528.71 15928.2 21.0596
305.917 36852.7 1747.72
620.314 37167.7 2190
1825.75 15585.7 744.034
750.194 28897.6 1221.95
245.416 15358.3 76.4012
1188.21 23130 176.918
107.849 16085.8 36.4918
251.459 23054.5 433.629
987.875 29554.7 56.4109
653.136 38803.9 444.287
755.461 33588 582.292
237.988 32584.3 273.22
627.705 38450 362.746
76.2662 8068.98 1287.22
2017.51 2017.51 0
107.855 1657.51 60.1703
230.001 34586.8 513.118
850.277 36174.6 206.631
397.305 9146.5 1674.21
921.535 1932.19 0
1012.7 39007.7 982.174
217.656 39043.9 2210.68
18.1115 41847.3 569.269
64.6779 38592.7 1999.94
184.297 41114.7 1368.13
134.655 41090.8 1342.98
1090.99 39951.2 230.115
0.468306 41040.3 2843.63
6.23385 41986.4 0.313419
342.502 22941 223.704
389.097 17133.6 1325.63
1309.88 7594.39 107.208
198.321 8979.53 1865.4
1848.31 1025.15 615.807
394.361 7385.44 138.702
1659.32 6954.72 562.996
1467.39 2205.34 0
2259.26 7633.98 34.3229
31.9556 35015.6 2012.92
726.31 1388.26 341.766
1892.77 1422.32 0
606.198 2698.53 105.018
2718.81 1359.4 0
138.38 8955.65 682.359
1024.7 29562.4 17.9987
458.476 32425.2 160.334
128.337 22785.5 462.557
633.755 15279.5 31.889
381.52 37155.3 94.8391
841.899 28850.8 341.851
580.162 37472.8 3427.97
801.216 16256.7 545.804
585.039 37954.3 1181.1
3359.53 3885.8 616.065
370.485 9055.38 134.084
113.116 2033.57 0
500.18 16109.9 856.575
476.29 37668.2 1127.38
195.303 40699.8 3124.04
902.226 9498.04 377.453
100.117 2050.73 58.01
450.115 16234.3 240.532
634.834 38543.2 401.178
353.24 37518.3 1141.58
258.638 39631.4 152.324
1722.33 29739.8 10.2795
666.136 15461.9 260.92
1809.4 29709.2 3.93146
36.4535 38817.2 1151.89
225.753 16045.9 273.581
1189.44 2196.37 523.451
221.88 36784.2 260.731
1732.18 13339.1 2357.31
1368.7 1368.7 1061.2
1899.63 15580.2 904.923
257.263 39624.4 161.188
1495.63 29369.3 265.316
600.342 39363.8 227.297
6.42934 42238 110.572
23.2851 40021.3 2092.4
617.894 39317 252.222
0.449069 41462.5 2817.06
0.0549871 42409.7 0.0064169
636.65 38842.7 333.508
301.069 41760.3 3590.74
639.379 39473.5 293.188
163.476 41482.6 1680.16
139.518 21958.5 573.542
460.697 35811 853.219
629.47 21813.3 194.677
472.011 28425.4 444.77
1134.2 28654.1 962.504
1204.68 34680.5 333.906
349.924 8097.96 68.4877
107.609 8339.6 133.061
47.1181 8180.66 1907.64
1690.88 7125.13 158.19
785.863 1394.69 0
1882.68 1432.98 0
638.291 40890.5 256.953
556.677 8290.66 1639.2
737.199 16023.9 732.886
728.599 16064.1 991.036
1510.26 2275.25 0
293.278 1935.48 244.189
747.078 28259.3 239.854
178.219 30359.4 2977.62
313.549 32815.8 163.674
16.3697 30027.7 891.428
1425.91 32855.8 14.5579
298.526 33524.1 912.075
988.714 29879.5 12.5901
2068.1 2068.1 0
23.4594 34674.3 2657.02
993.63 29846.1 157.574
906.53 23095.2 308.621
1399.35 23012.2 718.253
114.269 22692.7 1706.8
VECTORS 7.5e+10_E_real_0_[V/m] float
831.488 -9570.2 1914.29
194.471 -14334 379.257
155.657 -32295.5 3004.98
-304.731 -5773.23 4439.3
-355.921 -25284.4 -221.888
123.394 -15189.1 372.2
-11.1088 -28999.3 -1315.59
396.046 -33499.2 245.532
3999.96 -26781.4 -1212.21
1941.05 -30953.2 1781.67
8.1881 -29867.8 -697.671
6121.08 -6136.5 -125.788
-2974.69 -29410 1227.14
-1226.1 -11658.7 -3196.49
-68.9519 -30329.3 -3132.49
460.727 -14399.4 194.206
80.4216 -1647.78 -4246.83
-178.864 -24015.4 271.77
-2629.54 -26573.3 -858.719
-278.821 -21738.2 -67.476
-3420.35 -3279.16 322.085
-1269.74 -10808.5 2288.2
-400.285 -2749.93 -45.956
1917.11 14586.1 1946.43
-209.643 -148.489 -29.6978
-2339.61 -14645 1715.22
-1635.12 -5152.5 356.678
2516.17 -2554.47 678.559
1328.03 -4035.28 712.421
-5897.47 -6249.28 -403.109
634.842 1611.27 247.114
608.322 63.8261 7.77246
339.729 5476.95 437.17
1022.76 -8160.54 -1783.08
-843.025 1087.52 -68.9385
-1274.34 13310.5 -2108.17
-236.074 -1667.94 -442.57
56.047 6401.66 188.751
-229.607 15506 94.2609
562.499 16373 161.531
113.668 506.359 -293.414
-175.262 -15667.4 -42.2071
623.234 -10489 2095.35
4099.5 -3758.49 395.433
256.17 -2381.02 408.553
-761.015 825.214 280.77
-1242.81 10645.1 1952.34
2871.1 -21074.7 -1179.13
415.169 -35745.4 -830.691
2944.93 -29772.5 461.971
2321.29 -1954.9 605.296
5104.96 -5950.64 -4.86372
-740.605 -12327.5 289.755
-2788.45 -17960.1 -2427.63
-430.474 -6044.98 217.273
-92.4993 436.165 -827.316
1320.82 -2967.51 -645.187
1197.22 -1796.11 188.008
251.816 693.669 85.498
-147.493 -40378.7 -523.885
-4214.68 -4466.47 747.919
-207.651 -189.542 56.7752
-546.257 -4313.87 203.199
-866.519 -11014.4 342.437
1411.37 -13879.3 -2073.01
-3107.71 -2975.53 1028.71
-515.073 -789.38 -91.8209
-382.544 -3082.46 -2626.99
1248.98 13185.5 -1761.01
-146.315 12991.9 -89.9327
-190.689 6739.38 -2655.42
-13.0487 5022.71 857.23
81.6343 -40543.2 -323.823
513.997 -20458.6 -3114.84
-340.116 -1746.07 374.061
1310.49 1556.88 -488.927
-227.754 -24985.9 3036.2
-193.787 -4134.16 3993.24
979.147 -12403.9 1282.64
-259.933 434.093 -275.446
-206.735 23063.8 51.5502
-2087.19 -27128.2 1176.74
-2642.45 -25867.6 -569.031
12.0404 21667.2 291.074
165.898 2976.99 -79.4926
1254.77 11806.9 -1866.06
-144.05 19263.5 -60.1873
695.993 -24873.2 238.355
-2.26438 -16465.5 -636.167
-828.543 -2299.02 -67.9441
350.646 -2798.09 -408.263
1466.24 11100.8 1287.53
497.706 -30148.9 -117.694
-174.655 -26455.9 334.766
166.501 -37296.9 -292.899
-619.155 -27260.5 1460.33
786.224 1206.89 784.165
-409.58 21723.9 -164.651
-72.2031 31241.5 1277.75
0 -3872.83 0
135.892 -38230.3 -527.419
-75.8013 -41651.7 -355.854
-461.405 19510.6 3021.98
47.0739 20078 2299.18
-329.544 29672.7 -1068.66
-180.72 21714.7 -311.456
-55.8171 -37867.5 1222.75
-942.345 1613.76 63.7102
-918.932 991.288 300.527
266.129 9917.61 62.7592
25.8027 417.511 -14.8476
1018.64 987.306 -248.036
68.5875 9095.15 172.931
251.567 3579.26 333.763
-919.701 12493.7 1662.63
359.905 19573.6 -730.261
-1136.84 10693 -1642.7
584.341 10974.1 -293.989
-295.573 -1917.42 -339.95
-1093.43 642.973 52.7543
-1547.23 1184.64 -518.325
-651.58 -1449.04 59.4701
801.537 -13975.8 140.649
-1066.32 -39310.4 -433.84
175.786 2920.68 286.143
-356.667 17723.4 -93.703
204.405 18406.1 -248.614
3294.02 -3960.15 264.08
1255.23 1264.04 -39.0291
66.6601 9735.28 199.42
966.07 -4817.58 657.404
197.997 -290.351 -352.934
-0.242462 10237.2 -113.309
-131.202 -4425.16 384.219
-3923.59 -3428.88 -407.33
-322.783 1332.3 8.76105
678.728 1473.65 40.0912
1334.62 -1072.23 -315.61
-969.761 4198.2 672.626
611.319 -1253.47 -138.545
1278.84 -4731.86 -85.3308
-2063.85 -1911.77 -157.884
1580.19 -22099.6 1156.87
-4.48136 -4961.32 -1803.65
1115.01 -3231.66 -258.667
-134.731 -28.8935 0
253.824 2752.98 54.2104
430.692 -28162.8 221.745
289.622 -1255.84 447.407
776.575 17078.9 165.671
108.09 21277.3 -413.211
296.967 -15463.7 1453.34
-178.035 -36022.9 -199.534
64.4337 -38459.2 -491.421
1430.48 -25563.2 1163.49
-156.692 -12823 -315.485
-1431.09 -18725.4 -293.369
-109.623 -13459.7 915.008
-527.05 28287.6 -402.969
322.904 27371.5 -67.4128
952.783 11529.9 -269.714
299.5 13514 -1144.16
-90.6735 21999.9 -490.563
-660.263 31974.4 -3071.54
1497.58 22160.3 -233.216
2292.04 21567.5 -1371.29
-534.142 11971.9 193.17
-598.77 11699.3 -579.188
-1355.16 22540.3 9.35365
107.782 25794.7 -286.02
232.267 21578.8 -798.729
-246.191 29713.5 -56.6738
-82.4015 17914.8 170.571
254.756 22638.5 1700.44
-133.148 11397.9 703.808
956.337 30485.5 -2967.99
535.347 29044.6 -1155.1
72.2455 28385.8 -304.04
270.755 29654.8 395.723
-159.528 21486.8 -369.665
-197.397 29840.5 -123.233
496.954 11265.4 -569.185
1173.68 12229 -16.1687
235.15 28308.3 -1330.15
-476.745 28544.7 1669.74
-1401.6 11971.4 564.639
-578.999 22192.4 -930.731
-187.475 11792 -61.9087
-907.439 17762 -133.287
82.8023 12350 -29.8139
196.425 17708.4 332.537
758.45 22690.9 -43.31
-499.794 29801.4 -337.463
574.402 25791.8 -444.756
179.869 25027.1 209.756
481.927 29520.3 278.502
-58.5541 6195.03 -987.194
1548.96 1548.96 0
-82.8063 1272.57 46.1963
176.586 26554.3 -387.532
648.346 27786.7 160.011
305.035 7022.31 1284.09
707.517 1483.46 0
770.068 29959.6 -749.719
-165.877 29991.2 -1685.27
13.9053 32128.6 -435.281
-49.0272 29643.2 -1523.14
141.496 31566.2 1040.52
-103.382 31547.8 1021.41
-831.987 30678.5 -173.747
-0.359546 31509.1 -2165.93
4.78609 32235.4 -0.24063
260.408 17615.7 -170.236
299.285 13160.3 1013.85
-1006.87 5833.19 -84.5263
-152.08 6894.12 -1431.24
1419.06 787.066 -472.792
-303.318 5670.02 105.378
-1274.51 5340.79 -432.023
-1126.61 1693.17 0
1736.43 5862.94 29.4081
24.5342 26883.5 -1536.61
-557.631 1065.85 -262.394
1453.19 1092 0
-465.528 2071.82 -80.7511
-2087.39 1043.69 0
-104.924 6876.83 -521.419
-786.724 22696.8 13.8186
-353.011 24906.7 -118.226
98.5323 17493.8 -347.348
-485.224 11642.5 23.9304
-292.961 28320.5 -74.8107
644.381 21990.9 260.518
444.203 28564.8 -2630.26
-610.861 12394.4 -422.033
-448.724 28930.4 -904.936
2556.88 2956.89 467.703
281.779 6903.3 -100.481
-86.2421 1550.43 0
380.233 12281 658.046
-366.139 28702.1 -865.649
-147.833 31020.7 -2399.29
-687.62 7236.94 289.853
-76.6455 1563.51 -44.611
343.176 12377.3 183.122
489.09 29369.8 308.114
-271.834 28595.7 -878.555
197.19 30215.7 116.135
1313.14 22674.1 7.83728
-507.874 11788.4 198.93
-1379.52 22650.8 -2.99742
-27.7928 29595 -882.79
-172.118 12233.7 214.413
-904.641 1673.7 -395.667
170.318 28036.7 -200.915
1321.04 10167.2 1800.33
1043.53 1043.53 809.082
-1448.4 11874.2 695.242
-196.142 30210.4 122.893
1142 22390.6 -207.108
-460.888 30000 -177.164
-4.90184 32203 -84.2825
17.8902 30500.8 -1606.87
474.392 29964.3 -196.203
0.342378 31611.7 -2165.49
0.0419232 32333.9 0.00489236
-485.393 29614.4 254.273
-228.657 31837.9 -2753.67
487.474 30095.3 -223.532
124.637 31627.1 1292.95
-105.354 16740.1 438.404
-351.244 27302.9 647.475
478.796 16625.2 -149.458
-358.66 21664.7 -340.682
-864.333 21839.7 736.533
922.855 26435 258.231
268.446 6172.79 48.7032
-80.6749 6356.91 -99.7424
-35.9237 6237.09 1455.94
-1289.87 5431.24 120.665
599.156 1063.34 0
-1435.39 1092.53 0
490.43 31172.8 -194.868
424.421 6320.95 1250.49
562.054 12216.9 558.766
-554.199 12243.4 757.334
1151.45 1734.69 0
222.884 1475.42 185.134
571.029 21539.9 -179.543
-135.877 23146.5 2286.22
238.066 25008.4 -126.233
10.5982 22892.6 -683.86
1094.03 25039.3 10.6537
228.266 25551.3 -700.503
-753.814 22780.7 -9.5989
-1576.76 1576.76 0
17.8858 26436.3 -2039.59
757.562 22755.2 120.137
-694.669 17604.6 -238.856
1069.4 17538.8 546.837
-87.1206 17301.3 -1306.07
VECTORS 7.5e+10_E_imag_0_[V/m] float
720.86 -8276.51 1608.16
169.157 -12262.7 318.964
135.211 -27380.3 2498.88
-263.613 -5190.57 3727.35
-293.458 -21204.8 -181.664
107.734 -12580.8 308.328
-10.9583 -24308.7 -1103.63
330.74 -27995.7 206.336
3376 -22611.6 -1003.25
1622.28 -25921.7 1527.47
10.7169 -25135.4 -585.308
5147.03 -5160.06 -102.364
-2489.63 -24637.7 1057.94
-1064.51 -10035.4 -2674.47
-58.1899 -25744.4 -2604.8
387.965 -12429.1 163.559
73.8144 -1729.12 -3574.11
-153.264 -20425.7 232.445
-2219.78 -22443.6 -709.503
-231.955 -18417.7 -54.2374
-2903.18 -2783.33 273.383
-1037.47 -8872.52 1933.05
-330.366 -2179.23 -38.9468
1636.38 12515.6 1631.05
-144.374 -102.259 -20.4518
-1996.38 -12499.4 1441.25
-1385.8 -4354.46 297.403
2137.64 -2170.18 576.478
1112.39 -3383.58 601.036
-4969.78 -5265.15 -344.686
537.083 1503.47 203.588
515.821 77.7339 8.27384
284.914 4823.54 366.185
837.234 -6647.57 -1505.46
-738.766 947.534 -59.4324
-1098.07 11428.1 -1766.6
-197.425 -1625.46 -377.884
45.1725 5043.22 156.903
-188.262 12830.9 83.2013
473.323 13540.6 133.981
94.3642 236.848 -246.137
-148.883 -13057.8 -32.9579
502.929 -8588.81 1766.45
3411.73 -3125.65 338.766
217.182 -1844.46 340.436
-674.492 729.043 233.375
-1068.36 9181.67 1639.03
2401.35 -17614.9 -1008.76
349.002 -29929.7 -718.169
2482.97 -25092.9 369.675
1926.47 -1622.4 502.343
4291.78 -5004.67 -6.32834
-623.5 -10090 238.052
-2319.55 -14938.4 -2058.52
-366.349 -5350.73 181.409
-64.8791 230.194 -694.744
1126.91 -2549.62 -539.375
993.701 -1483.62 158.095
210.145 614.117 73.6328
-125.012 -33935.6 -436.271
-3525.62 -3735.08 622.989
-146.865 -134.057 40.1554
-458.775 -3600.79 169.648
-729.806 -9582.04 281.549
1207.45 -11896.7 -1734.41
-2634.65 -2522.59 872.12
-461.402 -700.622 -86.2856
-296.745 -2345.63 -2212.07
1073.58 11326.7 -1472.25
-126.905 11262.1 -73.7921
-160.095 6008.21 -2235.48
-8.30905 4458.69 724.393
67.923 -34109 -272.545
432.594 -16925.5 -2636.21
-274.7 -1322.25 308.603
1135.14 1351.9 -412.023
-187.412 -20755 2573.57
-165.866 -3141.17 3364.42
824.724 -10551 1083.97
-183.549 331.142 -234.246
-173.567 19698.3 44.5598
-1767.81 -22916.2 969.078
-2217.26 -21720.4 -492.837
13.6375 17940.4 247.22
139.271 2191.37 -69.4833
1034.43 9695.67 -1578.12
-119.531 15972.6 -53.0996
585.29 -20705 200.073
-1.67177 -13927.7 -536.875
-705.836 -1950.77 -53.1841
297.056 -2560.51 -346.394
1211.32 9140.43 1087.81
415.954 -25504.8 -99.5639
-145.247 -22283.7 279.232
139.88 -31511.9 -245.239
-519.642 -22839.5 1225.65
665.334 1324.27 655.83
-347.183 18537 -137.611
-60.4317 26530.5 1060.4
0 -3477.26 0
114.582 -32251.4 -445.961
-64.1108 -35057.8 -286.311
-392.09 16727.5 2533.36
36.1977 16597.8 1941.94
-278.117 24724.7 -902.559
-154.275 18014.2 -266.428
-48.0577 -31715.1 1052.77
-784.284 1336.96 54.681
-738.735 800.34 250.578
220.913 8210.54 52.1423
17.204 325.963 -12.1506
816.035 794.316 -208.596
55.9508 7547.61 144.727
211.479 2718.08 279.096
-755.444 10289.4 1405.51
310.008 16169 -616.805
-936.804 8782.25 -1387.41
496.503 9370.09 -246.605