! Touchstone file exported from HFSS 2020.1.3
!        File:           /home/user/Downloads/WR10.aedt
!        Generated:      11:23:04 AM  Aug 05, 2023
!        Design:         HFSSDesign1
!        Project:        WR10
!        Setup:          Setup1
!        Solution:       Sweep
!
! Variables:
!        $l = 5.00000mm
!        $t = 1.27000mm
!        $w = 2.54000mm
!
# GHZ S DB R 50.000000
! Terminal data exported
! Port[1] = 1
! Port[2] = 2
50                             -0.00171478087725758 15.4116235828052 -34.0366141578466 -74.5881852831611 -34.0366141578466 -74.5881852831611 -0.00171478087725661 15.4120058508727 
! Gamma         657.00781897498  0                0                0                0                0                657.007390377903 0                
! Port Impedance50               0                0                0                0                0                50               0                

50.15                          -0.00155143700992047 15.2496499485971 -33.9082443310109 -74.7264893277552 -33.9082443310131 -74.7264893277575 -0.00155130749821766 15.250035938325  
! Gamma         651.966671990141 0                0                0                0                0                651.966240079056 0                
! Port Impedance50               0                0                0                0                0                50               0                

50.3                           -0.00146639887531005 15.0874338383579 -33.7782891874369 -74.8664739079006 -33.7782891874411 -74.8664739079036 -0.00146622968075342 15.0878237921701 
! Gamma         646.870962425226 0                0                0                0                0                646.87052711177  0                
! Port Impedance50               0                0                0                0                0                50               0                

50.45                          -0.00145486318838339 14.9250233412278 -33.6467533956853 -75.0082624636881 -33.6467533956913 -75.0082624636903 -0.0014547344249369 14.9254175720079 
! Gamma         641.719390484168 0                0                0                0                0                641.718951676117 0                
! Port Impedance50               0                0                0                0                0                50               0                

50.6                           -0.00151070857057694 14.762459954501  -33.5136424874911 -75.151982875471 -33.5136424874986 -75.1519828754717 -0.00151068931820719 14.7628588354607 
! Gamma         636.510599808994 0                0                0                0                0                636.510157410019 0                
! Port Impedance50               0                0                0                0                0                50               0                

50.75                          -0.00162661250133044 14.5997773277551 -33.3789632578471 -75.2977665793227 -33.3789632578558 -75.2977665793208 -0.00162675968364144 14.6001812809532 
! Gamma         631.243173956311 0                0                0                0                0                631.242727865722 0                
! Port Impedance50               0                0                0                0                0                50               0                

50.9                           -0.00179419724101387 14.4370000719815 -33.2427241755227 -75.4457470499201 -33.2427241755325 -75.4457470499143 -0.00179455473508053 14.4374095556183 
! Gamma         625.915632585627 0                0                0                0                0                625.915182698092 0                
! Port Impedance50               0                0                0                0                0                50               0                

51.05                          -0.00200420498012218 14.2741426628785 -33.1049357875683 -75.5960575787968 -33.1049357875787 -75.5960575787866 -0.00200480299374598 14.2745581575336 
! Gamma         620.526427330128 0                0                0                0                0                620.525973535365 0                
! Port Impedance50               0                0                0                0                0                50               0                

51.2                           -0.00224670191993026 14.1112084701664 -32.9656110977559 -75.7488282872249 -32.9656110977668 -75.7488282872101 -0.00224755667053151 14.111630464185  
! Gamma         615.073937316903 0                0                0                0                0                615.07347949935  0                
! Port Impedance50               0                0                0                0                0                50               0                

51.35                          -0.00251131031696304 13.9481889473552 -32.824765895166 -75.9041823295948 -32.8247658951772 -75.9041823295756 -0.00251242404453959 13.9486179216388 
! Gamma         609.556464299526 0                0                0                0                0                609.556002337979 0                
! Port Impedance50               0                0                0                0                0                50               0                

51.5                           -0.0027874667086753 13.7850630187182 -32.6824190053537 -76.0622312660131 -32.682419005365 -76.0622312659889 -0.00278882805209542 13.7854994312232 
! Gamma         603.972227361126 0                0                0                0                0                603.971761128349 0                
! Port Impedance50               0                0                0                0                0                50               0                

51.65                          -0.00306470356050298 13.6217967020754 -32.5385924328714 -76.2230696128182 -32.5385924328825 -76.2230696127897 -0.00306628832207701 13.6222409723761 
! Gamma         598.319357140631 0                0                0                0                0                598.318886502922 0                
! Port Impedance50               0                0                0                0                0                50               0                

51.8                           -0.00333295041947151 13.4583430071141 -32.3933113605841 -76.3867686178035 -32.3933113605948 -76.3867686177708 -0.0033347227363562 13.4587955014434 
! Gamma         592.5958895286   0                0                0                0                0                592.595414345329 0                
! Port Impedance50               0                0                0                0                0                50               0                

51.95                          -0.0035828493151325 13.2946421490218 -32.2466039684503 -76.5533693539873 -32.2466039684604 -76.5533693539519 -0.00358476324769341 13.295103166257  
! Gamma         586.799758771769 0                0                0                0                0                586.799278894858 0                
! Port Impedance50               0                0                0                0                0                50               0                

52.1                           -0.00380607761397416 13.1306221157534 -32.0985010325817 -76.7228752825792 -32.0985010325911 -76.7228752825405 -0.00380807915053513 13.1310918748684 
! Gamma         580.92878991699  0                0                0                0                0                580.928305190354 0                
! Port Impedance50               0                0                0                0                0                50               0                

52.25                          -0.00399566982129872 12.9661996237974 -31.9490352648612 -76.8952445027989 -31.9490352648697 -76.8952445027591 -0.00399769928458471 12.96667825335   
! Gamma         574.980690515453 0                0                0                0                0                574.980200774379 0                
! Port Impedance50               0                0                0                0                0                50               0                

52.4                           -0.00414632796761429 12.8012814912701 -31.7982403546878 -77.0703819835676 -31.7982403546954 -77.0703819835271 -0.0041483227916984 12.8017690215298 
! Gamma         568.953041496602 0                0                0                0                0                568.952546567069 0                
! Port Impedance50               0                0                0                0                0                50               0                

52.55                          -0.00425470827438392 12.6357664479192 -31.646149678143 -77.2481321592075 -31.6461496781495 -77.2481321591673 -0.0042566061003655 12.636262806261  
! Gamma         562.843287107734 0                0                0                0                0                562.842786805656 0                
! Port Impedance50               0                0                0                0                0                50               0                

52.7                           -0.00431966985787972 12.4695473885257 -31.4927946467497 -77.4282723667675 -31.4927946467551 -77.4282723667289 -0.00432141187337565 12.4700523987104 
! Gamma         556.648723799526 0                0                0                0                0                556.648217929923 0                
! Port Impedance50               0                0                0                0                0                50               0                

52.85                          -0.0043424694321015 12.3025140586371 -31.3382026788306 -77.6105077037203 -31.338202678835 -77.6105077036844 -0.00434400385312222 12.3030274445622 
! Gamma         550.366487919134 0                0                0                0                0                550.365976275205 0                
! Port Impedance50               0                0                0                0                0                50               0                

53                             -0.00432688448748617 12.1345561390616 -31.1823947921624 -77.7944679871778 -31.1823947921658 -77.7944679871452 -0.00432817005273651 12.135077533488  
! Gamma         543.993542050492 0                0                0                0                0                543.993024412591 0                
! Port Impedance50               0                0                0                0                0                50               0                

53.15                          -0.00427924647519442 11.9655666678078 -31.0253828380994 -77.9797075928993 -31.0253828381018 -77.9797075928718 -0.00428025579313952 11.9660956264354 
! Gamma         537.52665981534  0                0                0                0                0                537.526135949829 0                
! Port Impedance50               0                0                0                0                0                50               0                

53.3                           -0.00420836538715859 11.7954457052007 -30.8671664255108 -78.1657090349383 -30.8671664255124 -78.1657090349166 -0.00420908794739298 11.7959817262755 
! Gamma         530.96240891727  0                0                0                0                0                530.96187857524  0                
! Port Impedance50               0                0                0                0                0                50               0                

53.45                          -0.00412532810250317 11.6241041102366 -30.70772961852  -78.3518912020828 -30.7077296185209 -78.3518912020677 -0.0041257727368506 11.624646659609  
! Gamma         524.297132173753 0                0                0                0                0                524.296595089591 0                
! Port Impedance50               0                0                0                0                0                50               0                

53.6                           -0.00404315531221486 11.4514672549241 -30.547037535644 -78.5376231788326 -30.5470375356443 -78.5376231788248 -0.00404335187120115 11.4520157961459 
! Gamma         517.526926236124 0                0                0                0                0                517.526382125905 0                
! Port Impedance50               0                0                0                0                0                50               0                

53.75                          -0.00397630609130129 11.277478460228  -30.3850330295218 -78.7222445254531 -30.3850330295218 -78.722244525453 -0.00397630609130611 11.2780324888658 
! Gamma         510.647617643124 0                0                0                0                0                510.647066202789 0                
! Port Impedance50               0                0                0                0                0                50               0                

53.9                           -0.00394002560003842 11.1021018949366 -30.221633685203 -78.9050927481224 -30.2216336852029 -78.9050927481306 -0.00393990159982853 11.1026609758019 
! Gamma         503.654735787507 0                0                0                0                0                503.654176690813 0                
! Port Impedance50               0                0                0                0                0                50               0                

54.05                          -0.00394954025670536 10.9253246409656 -30.0567294390429 -79.085538426195 -30.0567294390429 -79.0855384262111 -0.00394938374402105 10.9258884464291 
! Gamma         496.543482294517 0                0                0                0                0                496.542915190704 0                
! Port Impedance50               0                0                0                0                0                50               0                

54.2                           -0.0040191162423197 10.7471575999332 -29.8901811860829 -79.2630280453342 -29.8901811860831 -79.2630280453576 -0.00401903385569265 10.7477259469247 
! Gamma         489.308696211857 0                0                0                0                0                489.30812072299  0                
! Port Impedance50               0                0                0                0                0                50               0                

54.35                          -0.00416101144957786 10.567634902054  -29.7218208057081 -79.4371339769963 -29.721820805709 -79.4371339770268 -0.00416111943313768 10.5682077847817 
! Gamma         481.944814288239 0                0                0                0                0                481.944230006172 0                
! Port Impedance50               0                0                0                0                0                50               0                

54.5                           -0.00438436787126549 10.386811486347  -29.5514530848661 -79.6076102120869 -29.5514530848676 -79.6076102121227 -0.00438478476448697 10.3873891012474 
! Gamma         474.445825465354 0                0                0                0                0                474.445231948239 0                
! Port Impedance50               0                0                0                0                0                50               0                

54.65                          -0.00469411058796336 10.2047585588402 -29.3788600431632 -79.7744513718593 -29.3788600431656 -79.7744513718996 -0.00469494829163932 10.2053413178509 
! Gamma         466.805218517398 0                0                0                0                0                466.80461528566  0                
! Port Impedance50               0                0                0                0                0                50               0                

54.8                           -0.00508994028093456 10.0215567120996 -29.203808148452 -79.937951169603 -29.2038081484555 -79.9379511696465 -0.00509129381767589 10.022145240109  
! Gamma         459.015921532192 0                0                0                0                0                459.015308063865 0                
! Port Impedance50               0                0                0                0                0                50               0                

54.95                          -0.00556552742303527 9.83728661547039 -29.0260588338753 -80.0987548969932 -29.0260588338799 -80.0987548970378 -0.00556746392489727 9.83788172783392 
! Gamma         451.070231622989 0                0                0                0                0                451.069607348283 0                
! Port Impedance50               0                0                0                0                0                50               0                

55.1                           -0.00610803618185577 9.65201737255263 -28.8453825613627 -80.2578987191182 -28.8453825613685 -80.2578987191619 -0.00611058388646096 9.65262002899954 
! Gamma         442.959732869913 0                0                0                0                0                442.959097164853 0                
! Port Impedance50               0                0                0                0                0                50               0                

55.25                          -0.00669812182196899 9.4657929029451  -28.6615763910294 -80.4168267123453 -28.6615763910362 -80.4168267123863 -0.00670126013285066 9.46640413518551 
! Gamma         434.675199986554 0                0                0                0                0                434.674552165488 0                
! Port Impedance50               0                0                0                0                0                50               0                

55.4                           -0.00731055279499266 9.27861705065843 -28.4744845763892 -80.5773749040041 -28.474484576397 -80.5773749040401 -0.00731420474371501 9.27923786271833 
! Gamma         426.206484551694 0                0                0                0                0                426.205823858415 0                
! Port Impedance50               0                0                0                0                0                50               0                

55.55                          -0.00791560149984976 9.0904385588127  -28.284021078226 -80.7417104557472 -28.2840210782346 -80.7417104557766 -0.00791963020322557 9.09106980179328 
! Gamma         417.542379784225 0                0                0                0                0                417.54170538138  0                
! Port Impedance50               0                0                0                0                0                50               0                

55.7                           -0.00848131693398412 8.90113757466964 -28.0901920508241 -80.9122141597505 -28.0901920508332 -80.9122141597721 -0.00848552781256683 8.901779801451   
! Gamma         408.670458694084 0                0                0                0                0                408.669769650448 0                
! Port Impedance50               0                0                0                0                0                50               0                

55.85                          -0.00897672607529572 8.71051593165249 -27.8931153023139 -81.091296436565 -27.8931153023231 -81.0912964365773 -0.00898087659775544 8.71116924217812 
! Gamma         399.576878903159 0                0                0                0                0                399.576174178225 0                
! Port Impedance50               0                0                0                0                0                50               0                

56                             -0.00937589401886964 8.51829402212163 -27.6930325145806 -81.2811421924039 -27.6930325145897 -81.2811421924069 -0.00937971242715818 8.51895791622974 
! Gamma         390.246145336688 0                0                0                0                0                390.245423761844 0                
! Port Impedance50               0                0                0                0                0                50               0                

56.15                          -0.00966259028258445 8.32411747997919 -27.4903087659755 -81.483389676933 -27.490308765984 -81.4833896769268 -0.00966580395744799 8.32479074176502 
! Gamma         380.660819099755 0                0                0                0                0                380.660079355078 0                
! Port Impedance50               0                0                0                0                0                50               0                

56.3                           -0.00983504997697287 8.12757688445503 -27.2854129220944 -81.6987645273037 -27.285412922102 -81.6987645272894 -0.00983742261817465 8.12825752854141 
! Gamma         370.801156816758 0                0                0                0                0                370.800397402112 0                
! Port Impedance50               0                0                0                0                0                50               0                

56.45                          -0.00990998931668359 7.92824289505492 -27.0788722726764 -81.926713924935 -27.0788722726828 -81.9267139249145 -0.00991136376872752 7.92892820841747 
! Gamma         360.644658974722 0                0                0                0                0                360.643878173347 0                
! Port Impedance50               0                0                0                0                0                50               0                

56.6                           -0.00992467450247824 7.72571713111302 -26.8711962581878 -82.1651175421767 -26.8711962581928 -82.1651175421524 -0.0099250148339059 7.72640384023809 
! Gamma         350.165497513304 0                0                0                0                0                350.164693345371 0                
! Port Impedance50               0                0                0                0                0                50               0                

56.75                          -0.00993554856586246 7.51969517923885 -26.6627685216533 -82.4101891128529 -26.6627685216568 -82.4101891128273 -0.00993497123528472 7.52037975589859 
! Gamma         339.333780667182 0                0                0                0                0                339.332950829714 0                
! Port Impedance50               0                0                0                0                0                50               0                

56.9                           -0.0100118741483444 7.31003199062924 -26.4537154794781 -82.6567163399806 -26.4537154794801 -82.6567163399575 -0.0100106546960874 7.3107110743389  
! Gamma         328.114594625756 0                0                0                0                0                328.113736413675 0                
! Port Impedance50               0                0                0                0                0                50               0                

57.05                          -0.0102233356639383 7.09679185881198 -26.2437747455844 -82.8987977811779 -26.2437747455852 -82.8987977811592 -0.0102218761795325 7.09746271563322 
! Gamma         316.466733105335 0                0                0                0                0                316.465843305848 0                
! Port Impedance50               0                0                0                0                0                50               0                

57.2                           -0.010621937719379 6.88025666938559 -26.0322084886722 -83.1311863872193 -26.0322084886722 -83.1311863872071 -0.0106206842577738 6.88091752667895 
! Gamma         304.340980759574 0                0                0                0                0                304.34005550801  0                
! Port Impedance50               0                0                0                0                0                50               0                

57.35                          -0.0112212295770609 6.66086101192679 -25.8178316722941 -83.3511816528937 -25.8178316722939 -83.3511816528881 -0.0112205416230554 6.66151102175394 
! Gamma         291.677742428924 0                0                0                0                0                291.676777007278 0                
! Port Impedance50               0                0                0                0                0                50               0                

57.5                           -0.0119800638635875 6.43902861732487 -25.5992404359128 -83.5606521175857 -25.5992404359128 -83.5606521175857 -0.0119800638635855 6.4396671475038  
! Gamma         278.40368485091  0                0                0                0                0                278.402673398598 0                
! Port Impedance50               0                0                0                0                0                50               0                

57.65                          -0.0128031648700051 6.21491446702123 -25.3753012254735 -83.7671740102689 -25.3753012254739 -83.7671740102717 -0.0128036356789745 6.21553948152654 
! Gamma         264.426835816784 0                0                0                0                0                264.42577090181  0                
! Port Impedance50               0                0                0                0                0                50               0                

57.8                           -0.0135739320905478 5.98812915564631 -25.1458400602871 -83.982571262018 -25.1458400602879 -83.9825712620202 -0.0135743722039734 5.98873476482479 
! Gamma         249.629174402816 0                0                0                0                0                249.62804636087  0                
! Port Impedance50               0                0                0                0                0                50               0                

57.95                          -0.0142281733876919 5.75764831977142 -24.9121807530957 -84.2169881401432 -24.9121807530966 -84.2169881401435 -0.0142281166655188 5.75822229073886 
! Gamma         233.854936611043 0                0                0                0                0                233.853732478812 0                
! Port Impedance50               0                0                0                0                0                50               0                

58.1                           -0.0148443749781906 5.52224061508606 -24.6767271150753 -84.4687912661281 -24.6767271150758 -84.4687912661265 -0.0148439169909003 5.5227634819272  
! Gamma         216.891151255826 0                0                0                0                0                216.889852943829 0                
! Port Impedance50               0                0                0                0                0                50               0                

58.25                          -0.0156496881615274 5.28162067234912 -24.4406087259711 -84.7181560490681 -24.4406087259711 -84.7181560490678 -0.0156496881615351 5.28206722951486 
! Gamma         198.432973722108 0                0                0                0                0                198.431554640675 0                
! Port Impedance50               0                0                0                0                0                50               0                

58.4                           -0.0167688910919046 5.03747523312116 -24.2002176420151 -84.944825794488 -24.2002176420152 -84.9448257944918 -0.0167698105632734 5.03781123277395 
! Gamma         178.016156791225 0                0                0                0                0                178.014574952829 0                
! Port Impedance50               0                0                0                0                0                50               0                

58.55                          -0.0178066416623412 4.79116931814578 -23.9499806855167 -85.1790695143843 -23.9499806855172 -85.1790695143876 -0.017806671283083 4.7913157488662  
! Gamma         154.867984259611 0                0                0                0                0                154.866165980677 0                
! Port Impedance50               0                0                0                0                0                50               0                

58.7                           -0.0185734610515704 4.53809375246316 -23.6981981396413 -85.4620386511792 -23.6981981396413 -85.4620386511793 -0.0185734610515694 4.53782894517901 
! Gamma         127.509476000608 0                0                0                0                0                127.507267584509 0                
! Port Impedance50               0                0                0                0                0                50               0                

58.85                          -0.0197322936721713 4.28375780683638 -23.4359298206017 -85.7169523059591 -23.4359298206017 -85.7169523059592 -0.0197322936721713 4.28233758124535 
! Gamma         92.2684878095545 0                0                0                0                0                92.2654358878853 0                
! Port Impedance50               0                0                0                0                0                50               0                

59                             -0.0218745145112916 4.11956446896814 -22.9893915499761 -85.8935775277679 -22.9893915499763 -85.8935775277657 -0.02187451451131 4.09328047549727 
! Gamma         27.3589960849541 0                0                0                0                0                27.3487016819544 0                